phonopy:
  version: "2.43.6"
  frequency_unit_conversion_factor: 15.633302
  symmetry_tolerance: 1.00000e-05

space_group:
  type: "Pmma"
  number: 51
  Hall_symbol: "-P 2a 2a"

supercell_matrix:
- [   1,   0,   0 ]
- [   0,   1,   0 ]
- [   0,   0,   1 ]

primitive_cell:
  lattice:
  - [    16.000000000000000,     0.000000000000000,     0.000000000000000 ] # a
  - [     0.000000000000000,    16.000000000000000,     0.000000000000000 ] # b
  - [     0.000000000000000,     0.000000000000000,    42.599999999999994 ] # c
  points:
  - symbol: C # 1
    coordinates: [  0.626991903777216,  0.500000000000000,  0.058586120726019 ]
    mass: 12.010700
  - symbol: C # 2
    coordinates: [  0.626991903777216,  0.500000000000000,  0.158586120726019 ]
    mass: 12.010700
  - symbol: C # 3
    coordinates: [  0.626991903777217,  0.500000000000000,  0.258586120726019 ]
    mass: 12.010700
  - symbol: C # 4
    coordinates: [  0.626991903777216,  0.500000000000000,  0.358586120726019 ]
    mass: 12.010700
  - symbol: C # 5
    coordinates: [  0.626991903777217,  0.500000000000000,  0.458586120726019 ]
    mass: 12.010700
  - symbol: C # 6
    coordinates: [  0.626991903777217,  0.500000000000000,  0.558586120726019 ]
    mass: 12.010700
  - symbol: C # 7
    coordinates: [  0.626991903777217,  0.500000000000000,  0.658586120726019 ]
    mass: 12.010700
  - symbol: C # 8
    coordinates: [  0.626991903777216,  0.500000000000000,  0.758586120726018 ]
    mass: 12.010700
  - symbol: C # 9
    coordinates: [  0.626991903777217,  0.500000000000000,  0.858586120726019 ]
    mass: 12.010700
  - symbol: C # 10
    coordinates: [  0.626991903777216,  0.500000000000000,  0.958586120726019 ]
    mass: 12.010700
  - symbol: C # 11
    coordinates: [  0.602738608303796,  0.425356031799207,  0.041413879273981 ]
    mass: 12.010700
  - symbol: C # 12
    coordinates: [  0.602738608303796,  0.425356031799207,  0.141413879273981 ]
    mass: 12.010700
  - symbol: C # 13
    coordinates: [  0.602738608303796,  0.425356031799207,  0.241413879273981 ]
    mass: 12.010700
  - symbol: C # 14
    coordinates: [  0.602738608303796,  0.425356031799207,  0.341413879273981 ]
    mass: 12.010700
  - symbol: C # 15
    coordinates: [  0.602738608303796,  0.425356031799207,  0.441413879273981 ]
    mass: 12.010700
  - symbol: C # 16
    coordinates: [  0.602738608303796,  0.425356031799207,  0.541413879273981 ]
    mass: 12.010700
  - symbol: C # 17
    coordinates: [  0.602738608303796,  0.425356031799207,  0.641413879273981 ]
    mass: 12.010700
  - symbol: C # 18
    coordinates: [  0.602738608303796,  0.425356031799207,  0.741413879273981 ]
    mass: 12.010700
  - symbol: C # 19
    coordinates: [  0.602738608303796,  0.425356031799207,  0.841413879273981 ]
    mass: 12.010700
  - symbol: C # 20
    coordinates: [  0.602738608303796,  0.425356031799207,  0.941413879273981 ]
    mass: 12.010700
  - symbol: C # 21
    coordinates: [  0.539242656415188,  0.379223522395951,  0.058586120726019 ]
    mass: 12.010700
  - symbol: C # 22
    coordinates: [  0.539242656415188,  0.379223522395951,  0.158586120726019 ]
    mass: 12.010700
  - symbol: C # 23
    coordinates: [  0.539242656415188,  0.379223522395951,  0.258586120726019 ]
    mass: 12.010700
  - symbol: C # 24
    coordinates: [  0.539242656415188,  0.379223522395951,  0.358586120726019 ]
    mass: 12.010700
  - symbol: C # 25
    coordinates: [  0.539242656415188,  0.379223522395951,  0.458586120726019 ]
    mass: 12.010700
  - symbol: C # 26
    coordinates: [  0.539242656415188,  0.379223522395951,  0.558586120726018 ]
    mass: 12.010700
  - symbol: C # 27
    coordinates: [  0.539242656415188,  0.379223522395951,  0.658586120726019 ]
    mass: 12.010700
  - symbol: C # 28
    coordinates: [  0.539242656415188,  0.379223522395951,  0.758586120726019 ]
    mass: 12.010700
  - symbol: C # 29
    coordinates: [  0.539242656415188,  0.379223522395951,  0.858586120726019 ]
    mass: 12.010700
  - symbol: C # 30
    coordinates: [  0.539242656415188,  0.379223522395951,  0.958586120726019 ]
    mass: 12.010700
  - symbol: C # 31
    coordinates: [  0.539242656415188,  0.379223522395951,  0.091413879273981 ]
    mass: 12.010700
  - symbol: C # 32
    coordinates: [  0.539242656415188,  0.379223522395951,  0.191413879273981 ]
    mass: 12.010700
  - symbol: C # 33
    coordinates: [  0.539242656415188,  0.379223522395951,  0.291413879273981 ]
    mass: 12.010700
  - symbol: C # 34
    coordinates: [  0.539242656415188,  0.379223522395951,  0.391413879273981 ]
    mass: 12.010700
  - symbol: C # 35
    coordinates: [  0.539242656415188,  0.379223522395951,  0.491413879273981 ]
    mass: 12.010700
  - symbol: C # 36
    coordinates: [  0.539242656415188,  0.379223522395951,  0.591413879273981 ]
    mass: 12.010700
  - symbol: C # 37
    coordinates: [  0.539242656415188,  0.379223522395951,  0.691413879273981 ]
    mass: 12.010700
  - symbol: C # 38
    coordinates: [  0.539242656415188,  0.379223522395951,  0.791413879273981 ]
    mass: 12.010700
  - symbol: C # 39
    coordinates: [  0.539242656415188,  0.379223522395951,  0.891413879273982 ]
    mass: 12.010700
  - symbol: C # 40
    coordinates: [  0.539242656415188,  0.379223522395951,  0.991413879273982 ]
    mass: 12.010700
  - symbol: C # 41
    coordinates: [  0.460757343584812,  0.379223522395951,  0.008586120726019 ]
    mass: 12.010700
  - symbol: C # 42
    coordinates: [  0.460757343584812,  0.379223522395951,  0.108586120726019 ]
    mass: 12.010700
  - symbol: C # 43
    coordinates: [  0.460757343584812,  0.379223522395951,  0.208586120726019 ]
    mass: 12.010700
  - symbol: C # 44
    coordinates: [  0.460757343584812,  0.379223522395951,  0.308586120726019 ]
    mass: 12.010700
  - symbol: C # 45
    coordinates: [  0.460757343584812,  0.379223522395951,  0.408586120726019 ]
    mass: 12.010700
  - symbol: C # 46
    coordinates: [  0.460757343584812,  0.379223522395951,  0.508586120726018 ]
    mass: 12.010700
  - symbol: C # 47
    coordinates: [  0.460757343584812,  0.379223522395951,  0.608586120726019 ]
    mass: 12.010700
  - symbol: C # 48
    coordinates: [  0.460757343584812,  0.379223522395951,  0.708586120726019 ]
    mass: 12.010700
  - symbol: C # 49
    coordinates: [  0.460757343584812,  0.379223522395951,  0.808586120726019 ]
    mass: 12.010700
  - symbol: C # 50
    coordinates: [  0.460757343584812,  0.379223522395951,  0.908586120726019 ]
    mass: 12.010700
  - symbol: C # 51
    coordinates: [  0.460757343584812,  0.379223522395951,  0.041413879273981 ]
    mass: 12.010700
  - symbol: C # 52
    coordinates: [  0.460757343584812,  0.379223522395951,  0.141413879273981 ]
    mass: 12.010700
  - symbol: C # 53
    coordinates: [  0.460757343584812,  0.379223522395951,  0.241413879273981 ]
    mass: 12.010700
  - symbol: C # 54
    coordinates: [  0.460757343584812,  0.379223522395951,  0.341413879273981 ]
    mass: 12.010700
  - symbol: C # 55
    coordinates: [  0.460757343584812,  0.379223522395951,  0.441413879273981 ]
    mass: 12.010700
  - symbol: C # 56
    coordinates: [  0.460757343584812,  0.379223522395951,  0.541413879273981 ]
    mass: 12.010700
  - symbol: C # 57
    coordinates: [  0.460757343584812,  0.379223522395951,  0.641413879273981 ]
    mass: 12.010700
  - symbol: C # 58
    coordinates: [  0.460757343584812,  0.379223522395951,  0.741413879273981 ]
    mass: 12.010700
  - symbol: C # 59
    coordinates: [  0.460757343584812,  0.379223522395951,  0.841413879273981 ]
    mass: 12.010700
  - symbol: C # 60
    coordinates: [  0.460757343584812,  0.379223522395951,  0.941413879273981 ]
    mass: 12.010700
  - symbol: C # 61
    coordinates: [  0.397261391696204,  0.425356031799207,  0.058586120726019 ]
    mass: 12.010700
  - symbol: C # 62
    coordinates: [  0.397261391696204,  0.425356031799207,  0.158586120726019 ]
    mass: 12.010700
  - symbol: C # 63
    coordinates: [  0.397261391696204,  0.425356031799207,  0.258586120726019 ]
    mass: 12.010700
  - symbol: C # 64
    coordinates: [  0.397261391696204,  0.425356031799207,  0.358586120726019 ]
    mass: 12.010700
  - symbol: C # 65
    coordinates: [  0.397261391696204,  0.425356031799207,  0.458586120726019 ]
    mass: 12.010700
  - symbol: C # 66
    coordinates: [  0.397261391696204,  0.425356031799207,  0.558586120726019 ]
    mass: 12.010700
  - symbol: C # 67
    coordinates: [  0.397261391696204,  0.425356031799207,  0.658586120726019 ]
    mass: 12.010700
  - symbol: C # 68
    coordinates: [  0.397261391696204,  0.425356031799207,  0.758586120726019 ]
    mass: 12.010700
  - symbol: C # 69
    coordinates: [  0.397261391696204,  0.425356031799207,  0.858586120726019 ]
    mass: 12.010700
  - symbol: C # 70
    coordinates: [  0.397261391696204,  0.425356031799207,  0.958586120726019 ]
    mass: 12.010700
  - symbol: C # 71
    coordinates: [  0.397261391696204,  0.425356031799207,  0.091413879273981 ]
    mass: 12.010700
  - symbol: C # 72
    coordinates: [  0.397261391696204,  0.425356031799207,  0.191413879273981 ]
    mass: 12.010700
  - symbol: C # 73
    coordinates: [  0.397261391696204,  0.425356031799207,  0.291413879273981 ]
    mass: 12.010700
  - symbol: C # 74
    coordinates: [  0.397261391696204,  0.425356031799207,  0.391413879273981 ]
    mass: 12.010700
  - symbol: C # 75
    coordinates: [  0.397261391696204,  0.425356031799207,  0.491413879273981 ]
    mass: 12.010700
  - symbol: C # 76
    coordinates: [  0.397261391696204,  0.425356031799207,  0.591413879273981 ]
    mass: 12.010700
  - symbol: C # 77
    coordinates: [  0.397261391696204,  0.425356031799207,  0.691413879273981 ]
    mass: 12.010700
  - symbol: C # 78
    coordinates: [  0.397261391696204,  0.425356031799207,  0.791413879273981 ]
    mass: 12.010700
  - symbol: C # 79
    coordinates: [  0.397261391696204,  0.425356031799207,  0.891413879273982 ]
    mass: 12.010700
  - symbol: C # 80
    coordinates: [  0.397261391696204,  0.425356031799207,  0.991413879273981 ]
    mass: 12.010700
  - symbol: C # 81
    coordinates: [  0.373008096222783,  0.500000000000000,  0.008586120726019 ]
    mass: 12.010700
  - symbol: C # 82
    coordinates: [  0.373008096222784,  0.500000000000000,  0.108586120726019 ]
    mass: 12.010700
  - symbol: C # 83
    coordinates: [  0.373008096222784,  0.500000000000000,  0.208586120726019 ]
    mass: 12.010700
  - symbol: C # 84
    coordinates: [  0.373008096222784,  0.500000000000000,  0.308586120726019 ]
    mass: 12.010700
  - symbol: C # 85
    coordinates: [  0.373008096222784,  0.500000000000000,  0.408586120726019 ]
    mass: 12.010700
  - symbol: C # 86
    coordinates: [  0.373008096222784,  0.500000000000000,  0.508586120726018 ]
    mass: 12.010700
  - symbol: C # 87
    coordinates: [  0.373008096222783,  0.500000000000000,  0.608586120726019 ]
    mass: 12.010700
  - symbol: C # 88
    coordinates: [  0.373008096222784,  0.500000000000000,  0.708586120726019 ]
    mass: 12.010700
  - symbol: C # 89
    coordinates: [  0.373008096222784,  0.500000000000000,  0.808586120726019 ]
    mass: 12.010700
  - symbol: C # 90
    coordinates: [  0.373008096222783,  0.500000000000000,  0.908586120726019 ]
    mass: 12.010700
  - symbol: C # 91
    coordinates: [  0.373008096222784,  0.500000000000000,  0.041413879273981 ]
    mass: 12.010700
  - symbol: C # 92
    coordinates: [  0.373008096222784,  0.500000000000000,  0.141413879273981 ]
    mass: 12.010700
  - symbol: C # 93
    coordinates: [  0.373008096222783,  0.500000000000000,  0.241413879273981 ]
    mass: 12.010700
  - symbol: C # 94
    coordinates: [  0.373008096222783,  0.500000000000000,  0.341413879273981 ]
    mass: 12.010700
  - symbol: C # 95
    coordinates: [  0.373008096222784,  0.500000000000000,  0.441413879273981 ]
    mass: 12.010700
  - symbol: C # 96
    coordinates: [  0.373008096222784,  0.500000000000000,  0.541413879273981 ]
    mass: 12.010700
  - symbol: C # 97
    coordinates: [  0.373008096222783,  0.500000000000000,  0.641413879273981 ]
    mass: 12.010700
  - symbol: C # 98
    coordinates: [  0.373008096222784,  0.500000000000000,  0.741413879273982 ]
    mass: 12.010700
  - symbol: C # 99
    coordinates: [  0.373008096222784,  0.500000000000000,  0.841413879273981 ]
    mass: 12.010700
  - symbol: C # 100
    coordinates: [  0.373008096222783,  0.500000000000000,  0.941413879273981 ]
    mass: 12.010700
  - symbol: C # 101
    coordinates: [  0.397261391696204,  0.574643968200793,  0.058586120726019 ]
    mass: 12.010700
  - symbol: C # 102
    coordinates: [  0.397261391696204,  0.574643968200793,  0.158586120726019 ]
    mass: 12.010700
  - symbol: C # 103
    coordinates: [  0.397261391696204,  0.574643968200793,  0.258586120726019 ]
    mass: 12.010700
  - symbol: C # 104
    coordinates: [  0.397261391696204,  0.574643968200793,  0.358586120726019 ]
    mass: 12.010700
  - symbol: C # 105
    coordinates: [  0.397261391696204,  0.574643968200793,  0.458586120726019 ]
    mass: 12.010700
  - symbol: C # 106
    coordinates: [  0.397261391696204,  0.574643968200793,  0.558586120726019 ]
    mass: 12.010700
  - symbol: C # 107
    coordinates: [  0.397261391696204,  0.574643968200793,  0.658586120726019 ]
    mass: 12.010700
  - symbol: C # 108
    coordinates: [  0.397261391696204,  0.574643968200793,  0.758586120726019 ]
    mass: 12.010700
  - symbol: C # 109
    coordinates: [  0.397261391696204,  0.574643968200793,  0.858586120726019 ]
    mass: 12.010700
  - symbol: C # 110
    coordinates: [  0.397261391696204,  0.574643968200793,  0.958586120726019 ]
    mass: 12.010700
  - symbol: C # 111
    coordinates: [  0.397261391696204,  0.574643968200793,  0.091413879273981 ]
    mass: 12.010700
  - symbol: C # 112
    coordinates: [  0.397261391696204,  0.574643968200793,  0.191413879273981 ]
    mass: 12.010700
  - symbol: C # 113
    coordinates: [  0.397261391696204,  0.574643968200793,  0.291413879273981 ]
    mass: 12.010700
  - symbol: C # 114
    coordinates: [  0.397261391696204,  0.574643968200793,  0.391413879273981 ]
    mass: 12.010700
  - symbol: C # 115
    coordinates: [  0.397261391696204,  0.574643968200793,  0.491413879273981 ]
    mass: 12.010700
  - symbol: C # 116
    coordinates: [  0.397261391696204,  0.574643968200793,  0.591413879273981 ]
    mass: 12.010700
  - symbol: C # 117
    coordinates: [  0.397261391696204,  0.574643968200793,  0.691413879273981 ]
    mass: 12.010700
  - symbol: C # 118
    coordinates: [  0.397261391696204,  0.574643968200793,  0.791413879273982 ]
    mass: 12.010700
  - symbol: C # 119
    coordinates: [  0.397261391696204,  0.574643968200793,  0.891413879273982 ]
    mass: 12.010700
  - symbol: C # 120
    coordinates: [  0.397261391696204,  0.574643968200793,  0.991413879273982 ]
    mass: 12.010700
  - symbol: C # 121
    coordinates: [  0.460757343584812,  0.620776477604049,  0.008586120726019 ]
    mass: 12.010700
  - symbol: C # 122
    coordinates: [  0.460757343584812,  0.620776477604049,  0.108586120726019 ]
    mass: 12.010700
  - symbol: C # 123
    coordinates: [  0.460757343584812,  0.620776477604049,  0.208586120726019 ]
    mass: 12.010700
  - symbol: C # 124
    coordinates: [  0.460757343584812,  0.620776477604049,  0.308586120726019 ]
    mass: 12.010700
  - symbol: C # 125
    coordinates: [  0.460757343584812,  0.620776477604049,  0.408586120726019 ]
    mass: 12.010700
  - symbol: C # 126
    coordinates: [  0.460757343584812,  0.620776477604049,  0.508586120726019 ]
    mass: 12.010700
  - symbol: C # 127
    coordinates: [  0.460757343584812,  0.620776477604049,  0.608586120726019 ]
    mass: 12.010700
  - symbol: C # 128
    coordinates: [  0.460757343584812,  0.620776477604049,  0.708586120726019 ]
    mass: 12.010700
  - symbol: C # 129
    coordinates: [  0.460757343584812,  0.620776477604049,  0.808586120726019 ]
    mass: 12.010700
  - symbol: C # 130
    coordinates: [  0.460757343584812,  0.620776477604049,  0.908586120726019 ]
    mass: 12.010700
  - symbol: C # 131
    coordinates: [  0.460757343584812,  0.620776477604049,  0.041413879273981 ]
    mass: 12.010700
  - symbol: C # 132
    coordinates: [  0.460757343584812,  0.620776477604049,  0.141413879273981 ]
    mass: 12.010700
  - symbol: C # 133
    coordinates: [  0.460757343584812,  0.620776477604049,  0.241413879273981 ]
    mass: 12.010700
  - symbol: C # 134
    coordinates: [  0.460757343584812,  0.620776477604049,  0.341413879273981 ]
    mass: 12.010700
  - symbol: C # 135
    coordinates: [  0.460757343584812,  0.620776477604049,  0.441413879273981 ]
    mass: 12.010700
  - symbol: C # 136
    coordinates: [  0.460757343584812,  0.620776477604049,  0.541413879273981 ]
    mass: 12.010700
  - symbol: C # 137
    coordinates: [  0.460757343584812,  0.620776477604049,  0.641413879273981 ]
    mass: 12.010700
  - symbol: C # 138
    coordinates: [  0.460757343584812,  0.620776477604049,  0.741413879273982 ]
    mass: 12.010700
  - symbol: C # 139
    coordinates: [  0.460757343584812,  0.620776477604049,  0.841413879273981 ]
    mass: 12.010700
  - symbol: C # 140
    coordinates: [  0.460757343584812,  0.620776477604049,  0.941413879273981 ]
    mass: 12.010700
  - symbol: C # 141
    coordinates: [  0.539242656415188,  0.620776477604049,  0.058586120726019 ]
    mass: 12.010700
  - symbol: C # 142
    coordinates: [  0.539242656415188,  0.620776477604049,  0.158586120726019 ]
    mass: 12.010700
  - symbol: C # 143
    coordinates: [  0.539242656415188,  0.620776477604049,  0.258586120726019 ]
    mass: 12.010700
  - symbol: C # 144
    coordinates: [  0.539242656415188,  0.620776477604049,  0.358586120726019 ]
    mass: 12.010700
  - symbol: C # 145
    coordinates: [  0.539242656415188,  0.620776477604049,  0.458586120726019 ]
    mass: 12.010700
  - symbol: C # 146
    coordinates: [  0.539242656415188,  0.620776477604049,  0.558586120726019 ]
    mass: 12.010700
  - symbol: C # 147
    coordinates: [  0.539242656415188,  0.620776477604049,  0.658586120726019 ]
    mass: 12.010700
  - symbol: C # 148
    coordinates: [  0.539242656415188,  0.620776477604049,  0.758586120726018 ]
    mass: 12.010700
  - symbol: C # 149
    coordinates: [  0.539242656415188,  0.620776477604049,  0.858586120726019 ]
    mass: 12.010700
  - symbol: C # 150
    coordinates: [  0.539242656415188,  0.620776477604049,  0.958586120726019 ]
    mass: 12.010700
  - symbol: C # 151
    coordinates: [  0.539242656415188,  0.620776477604049,  0.091413879273981 ]
    mass: 12.010700
  - symbol: C # 152
    coordinates: [  0.539242656415188,  0.620776477604049,  0.191413879273981 ]
    mass: 12.010700
  - symbol: C # 153
    coordinates: [  0.539242656415188,  0.620776477604049,  0.291413879273981 ]
    mass: 12.010700
  - symbol: C # 154
    coordinates: [  0.539242656415188,  0.620776477604049,  0.391413879273981 ]
    mass: 12.010700
  - symbol: C # 155
    coordinates: [  0.539242656415188,  0.620776477604049,  0.491413879273982 ]
    mass: 12.010700
  - symbol: C # 156
    coordinates: [  0.539242656415188,  0.620776477604049,  0.591413879273981 ]
    mass: 12.010700
  - symbol: C # 157
    coordinates: [  0.539242656415188,  0.620776477604049,  0.691413879273981 ]
    mass: 12.010700
  - symbol: C # 158
    coordinates: [  0.539242656415188,  0.620776477604049,  0.791413879273981 ]
    mass: 12.010700
  - symbol: C # 159
    coordinates: [  0.539242656415188,  0.620776477604049,  0.891413879273982 ]
    mass: 12.010700
  - symbol: C # 160
    coordinates: [  0.539242656415188,  0.620776477604049,  0.991413879273982 ]
    mass: 12.010700
  - symbol: C # 161
    coordinates: [  0.602738608303796,  0.574643968200793,  0.008586120726019 ]
    mass: 12.010700
  - symbol: C # 162
    coordinates: [  0.602738608303796,  0.574643968200793,  0.108586120726019 ]
    mass: 12.010700
  - symbol: C # 163
    coordinates: [  0.602738608303796,  0.574643968200793,  0.208586120726019 ]
    mass: 12.010700
  - symbol: C # 164
    coordinates: [  0.602738608303796,  0.574643968200793,  0.308586120726019 ]
    mass: 12.010700
  - symbol: C # 165
    coordinates: [  0.602738608303796,  0.574643968200793,  0.408586120726019 ]
    mass: 12.010700
  - symbol: C # 166
    coordinates: [  0.602738608303796,  0.574643968200793,  0.508586120726019 ]
    mass: 12.010700
  - symbol: C # 167
    coordinates: [  0.602738608303796,  0.574643968200793,  0.608586120726019 ]
    mass: 12.010700
  - symbol: C # 168
    coordinates: [  0.602738608303796,  0.574643968200793,  0.708586120726019 ]
    mass: 12.010700
  - symbol: C # 169
    coordinates: [  0.602738608303796,  0.574643968200793,  0.808586120726019 ]
    mass: 12.010700
  - symbol: C # 170
    coordinates: [  0.602738608303796,  0.574643968200793,  0.908586120726019 ]
    mass: 12.010700
  - symbol: C # 171
    coordinates: [  0.602738608303796,  0.574643968200793,  0.041413879273981 ]
    mass: 12.010700
  - symbol: C # 172
    coordinates: [  0.602738608303796,  0.574643968200793,  0.141413879273981 ]
    mass: 12.010700
  - symbol: C # 173
    coordinates: [  0.602738608303796,  0.574643968200793,  0.241413879273981 ]
    mass: 12.010700
  - symbol: C # 174
    coordinates: [  0.602738608303796,  0.574643968200793,  0.341413879273981 ]
    mass: 12.010700
  - symbol: C # 175
    coordinates: [  0.602738608303796,  0.574643968200793,  0.441413879273981 ]
    mass: 12.010700
  - symbol: C # 176
    coordinates: [  0.602738608303796,  0.574643968200793,  0.541413879273981 ]
    mass: 12.010700
  - symbol: C # 177
    coordinates: [  0.602738608303796,  0.574643968200793,  0.641413879273981 ]
    mass: 12.010700
  - symbol: C # 178
    coordinates: [  0.602738608303796,  0.574643968200793,  0.741413879273982 ]
    mass: 12.010700
  - symbol: C # 179
    coordinates: [  0.602738608303796,  0.574643968200793,  0.841413879273981 ]
    mass: 12.010700
  - symbol: C # 180
    coordinates: [  0.602738608303796,  0.574643968200793,  0.941413879273981 ]
    mass: 12.010700
  - symbol: C # 181
    coordinates: [  0.602738608303796,  0.425356031799207,  0.008586120726019 ]
    mass: 12.010700
  - symbol: C # 182
    coordinates: [  0.602738608303796,  0.425356031799207,  0.108586120726019 ]
    mass: 12.010700
  - symbol: C # 183
    coordinates: [  0.602738608303796,  0.425356031799207,  0.208586120726019 ]
    mass: 12.010700
  - symbol: C # 184
    coordinates: [  0.602738608303796,  0.425356031799207,  0.308586120726019 ]
    mass: 12.010700
  - symbol: C # 185
    coordinates: [  0.602738608303796,  0.425356031799207,  0.408586120726019 ]
    mass: 12.010700
  - symbol: C # 186
    coordinates: [  0.602738608303796,  0.425356031799207,  0.508586120726018 ]
    mass: 12.010700
  - symbol: C # 187
    coordinates: [  0.602738608303796,  0.425356031799207,  0.608586120726019 ]
    mass: 12.010700
  - symbol: C # 188
    coordinates: [  0.602738608303796,  0.425356031799207,  0.708586120726018 ]
    mass: 12.010700
  - symbol: C # 189
    coordinates: [  0.602738608303796,  0.425356031799207,  0.808586120726019 ]
    mass: 12.010700
  - symbol: C # 190
    coordinates: [  0.602738608303796,  0.425356031799207,  0.908586120726019 ]
    mass: 12.010700
  - symbol: C # 191
    coordinates: [  0.626991903777217,  0.500000000000000,  0.091413879273981 ]
    mass: 12.010700
  - symbol: C # 192
    coordinates: [  0.626991903777217,  0.500000000000000,  0.191413879273981 ]
    mass: 12.010700
  - symbol: C # 193
    coordinates: [  0.626991903777217,  0.500000000000000,  0.291413879273981 ]
    mass: 12.010700
  - symbol: C # 194
    coordinates: [  0.626991903777217,  0.500000000000000,  0.391413879273981 ]
    mass: 12.010700
  - symbol: C # 195
    coordinates: [  0.626991903777216,  0.500000000000000,  0.491413879273981 ]
    mass: 12.010700
  - symbol: C # 196
    coordinates: [  0.626991903777216,  0.500000000000000,  0.591413879273981 ]
    mass: 12.010700
  - symbol: C # 197
    coordinates: [  0.626991903777217,  0.500000000000000,  0.691413879273981 ]
    mass: 12.010700
  - symbol: C # 198
    coordinates: [  0.626991903777217,  0.500000000000000,  0.791413879273981 ]
    mass: 12.010700
  - symbol: C # 199
    coordinates: [  0.626991903777217,  0.500000000000000,  0.891413879273982 ]
    mass: 12.010700
  - symbol: C # 200
    coordinates: [  0.626991903777216,  0.500000000000000,  0.991413879273981 ]
    mass: 12.010700
  reciprocal_lattice: # without 2pi
  - [     0.062500000000000,     0.000000000000000,     0.000000000000000 ] # a*
  - [     0.000000000000000,     0.062500000000000,     0.000000000000000 ] # b*
  - [     0.000000000000000,     0.000000000000000,     0.023474178403756 ] # c*

unit_cell:
  lattice:
  - [    16.000000000000000,     0.000000000000000,     0.000000000000000 ] # a
  - [     0.000000000000000,    16.000000000000000,     0.000000000000000 ] # b
  - [     0.000000000000000,     0.000000000000000,    42.599999999999994 ] # c
  points:
  - symbol: C # 1
    coordinates: [  0.626991903777216,  0.500000000000000,  0.058586120726019 ]
    mass: 12.010700
    reduced_to: 1
  - symbol: C # 2
    coordinates: [  0.626991903777216,  0.500000000000000,  0.158586120726019 ]
    mass: 12.010700
    reduced_to: 2
  - symbol: C # 3
    coordinates: [  0.626991903777217,  0.500000000000000,  0.258586120726019 ]
    mass: 12.010700
    reduced_to: 3
  - symbol: C # 4
    coordinates: [  0.626991903777216,  0.500000000000000,  0.358586120726019 ]
    mass: 12.010700
    reduced_to: 4
  - symbol: C # 5
    coordinates: [  0.626991903777217,  0.500000000000000,  0.458586120726019 ]
    mass: 12.010700
    reduced_to: 5
  - symbol: C # 6
    coordinates: [  0.626991903777217,  0.500000000000000,  0.558586120726019 ]
    mass: 12.010700
    reduced_to: 6
  - symbol: C # 7
    coordinates: [  0.626991903777217,  0.500000000000000,  0.658586120726019 ]
    mass: 12.010700
    reduced_to: 7
  - symbol: C # 8
    coordinates: [  0.626991903777216,  0.500000000000000,  0.758586120726018 ]
    mass: 12.010700
    reduced_to: 8
  - symbol: C # 9
    coordinates: [  0.626991903777217,  0.500000000000000,  0.858586120726019 ]
    mass: 12.010700
    reduced_to: 9
  - symbol: C # 10
    coordinates: [  0.626991903777216,  0.500000000000000,  0.958586120726019 ]
    mass: 12.010700
    reduced_to: 10
  - symbol: C # 11
    coordinates: [  0.602738608303796,  0.425356031799207,  0.041413879273981 ]
    mass: 12.010700
    reduced_to: 11
  - symbol: C # 12
    coordinates: [  0.602738608303796,  0.425356031799207,  0.141413879273981 ]
    mass: 12.010700
    reduced_to: 12
  - symbol: C # 13
    coordinates: [  0.602738608303796,  0.425356031799207,  0.241413879273981 ]
    mass: 12.010700
    reduced_to: 13
  - symbol: C # 14
    coordinates: [  0.602738608303796,  0.425356031799207,  0.341413879273981 ]
    mass: 12.010700
    reduced_to: 14
  - symbol: C # 15
    coordinates: [  0.602738608303796,  0.425356031799207,  0.441413879273981 ]
    mass: 12.010700
    reduced_to: 15
  - symbol: C # 16
    coordinates: [  0.602738608303796,  0.425356031799207,  0.541413879273981 ]
    mass: 12.010700
    reduced_to: 16
  - symbol: C # 17
    coordinates: [  0.602738608303796,  0.425356031799207,  0.641413879273981 ]
    mass: 12.010700
    reduced_to: 17
  - symbol: C # 18
    coordinates: [  0.602738608303796,  0.425356031799207,  0.741413879273981 ]
    mass: 12.010700
    reduced_to: 18
  - symbol: C # 19
    coordinates: [  0.602738608303796,  0.425356031799207,  0.841413879273981 ]
    mass: 12.010700
    reduced_to: 19
  - symbol: C # 20
    coordinates: [  0.602738608303796,  0.425356031799207,  0.941413879273981 ]
    mass: 12.010700
    reduced_to: 20
  - symbol: C # 21
    coordinates: [  0.539242656415188,  0.379223522395951,  0.058586120726019 ]
    mass: 12.010700
    reduced_to: 21
  - symbol: C # 22
    coordinates: [  0.539242656415188,  0.379223522395951,  0.158586120726019 ]
    mass: 12.010700
    reduced_to: 22
  - symbol: C # 23
    coordinates: [  0.539242656415188,  0.379223522395951,  0.258586120726019 ]
    mass: 12.010700
    reduced_to: 23
  - symbol: C # 24
    coordinates: [  0.539242656415188,  0.379223522395951,  0.358586120726019 ]
    mass: 12.010700
    reduced_to: 24
  - symbol: C # 25
    coordinates: [  0.539242656415188,  0.379223522395951,  0.458586120726019 ]
    mass: 12.010700
    reduced_to: 25
  - symbol: C # 26
    coordinates: [  0.539242656415188,  0.379223522395951,  0.558586120726018 ]
    mass: 12.010700
    reduced_to: 26
  - symbol: C # 27
    coordinates: [  0.539242656415188,  0.379223522395951,  0.658586120726019 ]
    mass: 12.010700
    reduced_to: 27
  - symbol: C # 28
    coordinates: [  0.539242656415188,  0.379223522395951,  0.758586120726019 ]
    mass: 12.010700
    reduced_to: 28
  - symbol: C # 29
    coordinates: [  0.539242656415188,  0.379223522395951,  0.858586120726019 ]
    mass: 12.010700
    reduced_to: 29
  - symbol: C # 30
    coordinates: [  0.539242656415188,  0.379223522395951,  0.958586120726019 ]
    mass: 12.010700
    reduced_to: 30
  - symbol: C # 31
    coordinates: [  0.539242656415188,  0.379223522395951,  0.091413879273981 ]
    mass: 12.010700
    reduced_to: 31
  - symbol: C # 32
    coordinates: [  0.539242656415188,  0.379223522395951,  0.191413879273981 ]
    mass: 12.010700
    reduced_to: 32
  - symbol: C # 33
    coordinates: [  0.539242656415188,  0.379223522395951,  0.291413879273981 ]
    mass: 12.010700
    reduced_to: 33
  - symbol: C # 34
    coordinates: [  0.539242656415188,  0.379223522395951,  0.391413879273981 ]
    mass: 12.010700
    reduced_to: 34
  - symbol: C # 35
    coordinates: [  0.539242656415188,  0.379223522395951,  0.491413879273981 ]
    mass: 12.010700
    reduced_to: 35
  - symbol: C # 36
    coordinates: [  0.539242656415188,  0.379223522395951,  0.591413879273981 ]
    mass: 12.010700
    reduced_to: 36
  - symbol: C # 37