  72  216
1 1
    24.911838148366034    -1.709674760152464    -0.000000000000002
    -1.709674760152464    28.899030559902140     0.000000000000001
    -0.000000000000002     0.000000000000001    26.827740803989997
1 2
    -0.064186348120301    -0.372171361590658     1.147824049807806
    -0.372171361590658     0.325312200152373     0.567733123418014
    -1.147824049807806    -0.567733123418014    -1.398498793034988
1 3
    -0.064186348120301    -0.372171361590658    -1.147824049807806
    -0.372171361590658     0.325312200152373    -0.567733123418014
     1.147824049807806     0.567733123418014    -1.398498793034988
1 4
    -0.005973762262892    -0.005288122154749    -0.003710055792487
    -0.015029795740533    -0.013507512115776    -0.002741841357905
     0.000933329478193    -0.005617969951696     0.003313710385516
1 5
    -0.001294139194911    -0.003906123919111    -0.000000000000000
    -0.002921732594891    -0.008588571528511     0.000000000000000
     0.000000000000000     0.000000000000000    -0.001285424809578
1 6
    -0.005973762262892    -0.005288122154749     0.003710055792487
    -0.015029795740533    -0.013507512115776     0.002741841357905
    -0.000933329478193     0.005617969951696     0.003313710385516
1 7
     0.000162988008262    -0.000020251634266    -0.001103834232510
     0.000009576415777     0.000106499793093    -0.003066909706132
     0.001049182122247     0.002233282195733     0.000825597898797
1 8
    -0.000268436065557    -0.000017574959726    -0.000000000000000
     0.000005974527571    -0.000298129036277    -0.000000000000000
     0.000000000000000    -0.000000000000000     0.000581967828045
1 9
     0.000162988008262    -0.000020251634266     0.001103834232510
     0.000009576415777     0.000106499793093     0.003066909706132
    -0.001049182122247    -0.002233282195733     0.000825597898797
1 10
     0.000119451125257     0.000012966937071     0.000310094842506
    -0.000006395526336     0.000102074987892    -0.001973951223539
    -0.000035081981192     0.000859847959210    -0.002258509220908
1 11
    -0.000292320129735     0.000005295376809     0.000000000000000
     0.000000333267897    -0.000305241462656    -0.000000000000000
    -0.000000000000000    -0.000000000000000    -0.002125402718720
1 12
     0.000119451125257     0.000012966937071    -0.000310094842506
    -0.000006395526336     0.000102074987892     0.001973951223539
     0.000035081981192    -0.000859847959210    -0.002258509220908
1 13
     0.236564271315175    -0.969428950393740    -0.501061429999502
    -0.316031111265533    -0.195656479635169    -0.859172247301616
     0.783416689254447     1.187962367165128    -0.458077389916246
1 14
    -0.133123486830525    -0.043150724799900    -0.000000000000000
    -0.007478453497104    -0.162068743747223     0.000000000000000
     0.000000000000000    -0.000000000000000    -0.049589475180415
1 15
     0.236564271315175    -0.969428950393740     0.501061429999502
    -0.316031111265533    -0.195656479635169     0.859172247301616
    -0.783416689254447    -1.187962367165129    -0.458077389916246
1 16
     0.000130306531200    -0.000000735003773    -0.000697978198069
    -0.000011164026169     0.000122824834525     0.000601089742044
     0.001538396452098    -0.001185054639802    -0.002108492110074
1 17
    -0.000305209089195    -0.000033612865426     0.000000000000000
     0.000030008489522    -0.000282181347038    -0.000000000000000
     0.000000000000000    -0.000000000000000    -0.002220038195484
1 18
     0.000130306531200    -0.000000735003773     0.000697978198069
    -0.000011164026169     0.000122824834525    -0.000601089742044
    -0.001538396452098     0.001185054639802    -0.002108492110074
1 19
     0.000159194402251    -0.000003912801914     0.000000000000000
     0.000004238046411     0.000210636766707    -0.000000000000000
    -0.000000000000000     0.000000000000000    -0.001128186265819
1 20
     0.000003576165451     0.000029207841972    -0.002413730901290
    -0.000001782199695    -0.000013687499342     0.001417723768967
     0.004059516506854    -0.002153820509680    -0.001571721006267
1 21
     0.000003576165451     0.000029207841972     0.002413730901290
    -0.000001782199695    -0.000013687499342    -0.001417723768967
    -0.004059516506854     0.002153820509680    -0.001571721006267
1 22
     0.000143407388262     0.000002342919514     0.000000000000000
    -0.000008016270779     0.000184542707733    -0.000000000000000
    -0.000000000000000     0.000000000000000    -0.002569208511536
1 23
    -0.000039572541853     0.000014425956248    -0.000475549034908
    -0.000018542633923    -0.000020035632532     0.000647740895459
     0.002186808967523    -0.001975500624964    -0.002470759398614
1 24
    -0.000039572541853     0.000014425956248     0.000475549034908
    -0.000018542633923    -0.000020035632532    -0.000647740895459
    -0.002186808967523     0.001975500624964    -0.002470759398614
1 25
     0.000159010953148     0.000026370630942    -0.000000000000000
    -0.000007122698760     0.000173986905652     0.000000000000000
    -0.000000000000000     0.000000000000000     0.000203730244873
1 26
    -0.000049119152605     0.000005913106091    -0.001386043597873
    -0.000010141129776    -0.000038258773058    -0.005849428864875
     0.001058125678956     0.004320035676502    -0.000038901087940
1 27
    -0.000049119152605     0.000005913106091     0.001386043597873
    -0.000010141129776    -0.000038258773058     0.005849428864875
    -0.001058125678956    -0.004320035676502    -0.000038901087940
1 28
     0.000092563773775    -0.000001899318849    -0.001626786403570
    -0.000023338795205     0.000096351272477     0.000697080669146
     0.002465863483472    -0.000861044620929    -0.000759731589932
1 29
    -0.000306383982810    -0.000026428379189    -0.000000000000000
    -0.000010417350248    -0.000297083928112    -0.000000000000000
    -0.000000000000000     0.000000000000000    -0.000971734769468
1 30
     0.000092563773775    -0.000001899318849     0.001626786403570
    -0.000023338795205     0.000096351272477    -0.000697080669146
    -0.002465863483472     0.000861044620929    -0.000759731589932
1 31
     0.000141530046871     0.000025412263136    -0.000026885279775
     0.000021303438345     0.000116274852438    -0.000102706760973
     0.000769618979964    -0.000820149298237    -0.002842597621051
1 32
    -0.000265600745081     0.000029102818039     0.000000000000000
    -0.000018362178343    -0.000254647460951    -0.000000000000000
     0.000000000000000    -0.000000000000000    -0.002807175916666
1 33
     0.000141530046871     0.000025412263136     0.000026885279775
     0.000021303438345     0.000116274852438     0.000102706760973
    -0.000769618979964     0.000820149298237    -0.002842597621051
1 34
     0.000358440966224     0.004180545362745    -0.000000000000000
     0.000291558523478     0.005749532069272     0.000000000000000
     0.000000000000000     0.000000000000000     0.001382274470490
1 35
     0.000137870233625     0.001835016420021    -0.003639562882356
     0.000440293411743     0.002815724383750    -0.006665721847777
     0.002730911472631     0.004409228669818     0.001487665920990
1 36
     0.000137870233625     0.001835016420021     0.003639562882356
     0.000440293411743     0.002815724383750     0.006665721847777
    -0.002730911472631    -0.004409228669818     0.001487665920990
1 37
     0.000173986905654    -0.000026370630942     0.000000000000000
     0.000007122698761     0.000159010953148     0.000000000000000
    -0.000000000000000     0.000000000000000     0.000203730244875
1 38
    -0.000038258773057    -0.000005913106091    -0.004320035676502
     0.000010141129777    -0.000049119152605     0.001058125678956
     0.005849428864874    -0.001386043597873    -0.000038901087938
1 39
    -0.000038258773057    -0.000005913106091     0.004320035676502
     0.000010141129777    -0.000049119152605    -0.001058125678956
    -0.005849428864874     0.001386043597873    -0.000038901087938
1 40
     0.000118956869582     0.000004097679361    -0.000155318197051
     0.000026500009157     0.000105601292282    -0.002659629742689
     0.000247991613420     0.001745732823306    -0.000683285246992
1 41
    -0.000265579680147    -0.000034515772819    -0.000000000000000
     0.000023984585554    -0.000314681684486    -0.000000000000000
    -0.000000000000000     0.000000000000000    -0.000718144981676
1 42
     0.000118956869582     0.000004097679361     0.000155318197051
     0.000026500009157     0.000105601292282     0.002659629742689
    -0.000247991613420    -0.001745732823306    -0.000683285246992
1 43
     0.000154309102466     0.000007164266296     0.000000000000000
     0.000007164266297     0.000192736070824    -0.000000000000000
    -0.000000000000000     0.000000000000000    -0.002956023263420
1 44
    -0.000042479811793     0.000001563481851     0.000628437173051
     0.000001563481852    -0.000027186309079    -0.000882455286272
     0.000628437173051    -0.000882455286272    -0.003022166663698
1 45
    -0.000042479811793     0.000001563481851    -0.000628437173051
     0.000001563481852    -0.000027186309079     0.000882455286272
    -0.000628437173051     0.000882455286272    -0.003022166663698
1 46
    -0.028127271277700     0.025377101406660    -0.000000000000000
     0.054270092317329    -0.055308756448039    -0.000000000000000
     0.000000000000000     0.000000000000000    -0.084507217187319
1 47
    -0.077307719167632    -0.004527474694582     0.040948955129507
    -0.019189827917415    -0.092316677678625     0.040031015777165
     0.060541515514026     0.073105196454143    -0.033520839268778
1 48
    -0.077307719167632    -0.004527474694582    -0.040948955129507
    -0.019189827917415    -0.092316677678625    -0.040031015777165
    -0.060541515514026    -0.073105196454143    -0.033520839268778
1 49
     0.006355133813019    -0.000721473748644    -0.000000000000000
     0.003191145618715    -0.000254484409676     0.000000000000000
    -0.000000000000000    -0.000000000000000     0.001392485616241
1 50
     0.003117734853979    -0.000095474727132    -0.005087145681524
     0.001265466825078    -0.000138503475073     0.000229654838903
     0.007321863867389     0.000110130804727     0.001535055636667
1 51
     0.003117734853979    -0.000095474727132     0.005087145681524
     0.001265466825078    -0.000138503475073    -0.000229654838903
    -0.007321863867389    -0.000110130804727     0.001535055636667
1 52
    -0.019892045964293    -0.008651223341795     0.003080349622827
     0.001165815301821     0.000421057242765     0.004372851543475
     0.004524967902093    -0.000750944611252     0.003485101331925
1 53
    -0.008365711711886    -0.003158132531577    -0.000000000000000
    -0.004189196847571    -0.001521523621955     0.000000000000000
    -0.000000000000000    -0.000000000000000    -0.001155588713240
1 54
    -0.019892045964293    -0.008651223341795    -0.003080349622827
     0.001165815301821     0.000421057242765    -0.004372851543475
    -0.004524967902093     0.000750944611252     0.003485101331925
1 55
    -0.113775390589195    -0.337890855333070    -1.064193388047432
    -0.991368710456117     0.154706683140223    -0.945043144153182
     0.706352603215940     0.700180444301371    -0.458032887218160
1 56
    -0.147725665151618    -0.011329288865909    -0.000000000000000
    -0.047022675210028    -0.147417729343652    -0.000000000000000
    -0.000000000000000    -0.000000000000000    -0.049509594912824
1 57
    -0.113775390589195    -0.337890855333070     1.064193388047432
    -0.991368710456117     0.154706683140223     0.945043144153181
    -0.706352603215940    -0.700180444301371    -0.458032887218160
1 58
     0.000132638150608     0.000020114152168     0.000360230939324
     0.000012048254590     0.000118884778179    -0.000947739986863
     0.000060099571070    -0.000066827213698    -0.002944012434956
1 59
    -0.000252699659907     0.000036480142000     0.000000000000000
     0.000020223429616    -0.000232989014538    -0.000000000000000
    -0.000000000000000    -0.000000000000000    -0.002961202388090
1 60
     0.000132638150608     0.000020114152168    -0.000360230939324
     0.000012048254590     0.000118884778179     0.000947739986863
    -0.000060099571070     0.000066827213698    -0.002944012434955
1 61
     0.000154410305322     0.000004203319520     0.000000000000000
     0.000024885602961     0.000173874931837    -0.000000000000000
    -0.000000000000000     0.000000000000000    -0.002721884197647
1 62
    -0.000020261416114    -0.000004746911168     0.000873588534756
    -0.000012782825417    -0.000073945781574    -0.002876420972198
    -0.000214562305686     0.000819861973503    -0.002655445489554
1 63
    -0.000020261416114    -0.000004746911168    -0.000873588534756
    -0.000012782825417    -0.000073945781574     0.002876420972198
     0.000214562305686    -0.000819861973503    -0.002655445489554
1 64
     0.000188149790166    -0.000026910551447    -0.000000000000000
    -0.000007066252351     0.000163300457776     0.000000000000000
    -0.000000000000000    -0.000000000000000    -0.001503608619358
1 65
    -0.000048554585565     0.000000707070119     0.000107510614534
    -0.000010084660630    -0.000017670428950    -0.004557246958739
     0.000121028178083     0.002710701437309    -0.001580534530019
1 66
    -0.000048554585565     0.000000707070119    -0.000107510614534
    -0.000010084660630    -0.000017670428950     0.004557246958739
    -0.000121028178083    -0.002710701437309    -0.001580534530019
1 67
     0.000098528895820     0.000003399831452    -0.002562198230735
     0.000001370961274     0.000126243377622     0.000281531986537
     0.003160593307288    -0.000345072951149     0.000718683654917
1 68
    -0.000274658177568     0.000006724148035    -0.000000000000000
     0.000015205728560    -0.000291673697901    -0.000000000000000
    -0.000000000000000    -0.000000000000000     0.000897591555974
1 69
     0.000098528895820     0.000003399831452     0.002562198230735
     0.000001370961274     0.000126243377622    -0.000281531986537
    -0.003160593307288     0.000345072951149     0.000718683654917
1 70
    -0.000497171358538     0.022554191726310    -0.000000000000000
    -0.006317044972802    -0.082897017984760     0.000000000000000
    -0.000000000000000    -0.000000000000000    -0.084931795133038
1 71
    -0.091375193585657    -0.019765952825392    -0.088716626319236
    -0.005052355407812    -0.078275843837985    -0.032767868841011
    -0.055565731679767    -0.014108049357513    -0.033673959448398
1 72
    -0.091375193585657    -0.019765952825392     0.088716626319236
    -0.005052355407812    -0.078275843837985     0.032767868841011
     0.055565731679767     0.014108049357513    -0.033673959448398
1 73
     0.017594570346535     0.013691496905282    -0.016086371157298
     0.009217810373194     0.016668396685804    -0.011983002948166
     0.003772204484121     0.005750543762988     0.000046546699542
1 74
     0.001197325756523     0.001188222051788     0.000000000000000
    -0.005181853662713    -0.002127716520701     0.000000000000000
     0.000000000000000     0.000000000000000    -0.007824038830974
1 75
     0.017594570346535     0.013691496905282     0.016086371157298
     0.009217810373194     0.016668396685804     0.011983002948166
    -0.003772204484121    -0.005750543762988     0.000046546699542
1 76
    -6.507292875472011    -0.219616236152463     0.000000000000001
    -0.069511548870219    -1.451190284155056     0.000000000000000
     0.000000000000001    -0.000000000000000    -1.735368590848348
1 77
    -0.024874589586353     0.157574324945002     0.267303018754127
     0.324829522252357     0.102446944160056     0.029982853239535
     0.138803318450391     0.093564808769732     0.023882722882041
1 78
    -0.024874589586353     0.157574324945002    -0.267303018754127
     0.324829522252357     0.102446944160056    -0.029982853239535
    -0.138803318450391    -0.093564808769732     0.023882722882041
1 79
    -0.000061920212760     0.005460746914142    -0.002270420743267
     0.000924219427655     0.008733199159897    -0.003726423650893
     0.001506607200798     0.000968610845243     0.000384672386424
1 80
    -0.000003387541865     0.003664877255955    -0.000000000000000
     0.000884341599669     0.006006335657898     0.000000000000000
     0.000000000000000    -0.000000000000000     0.002983838086896
1 81
    -0.000061920212760     0.005460746914142     0.002270420743267
     0.000924219427655     0.008733199159897     0.003726423650893
    -0.001506607200798    -0.000968610845243     0.000384672386424
1 82
    -0.004998339187968     0.027885179490047    -0.000000000000000
     0.009794714776757     0.067250182179016     0.000000000000000
    -0.000000000000000    -0.000000000000000     0.005924019304143
1 83
    -0.008551562039978     0.003011761487718    -0.002782006115870
     0.002381541589269     0.007975450273353    -0.002094284306950
     0.005107945175839     0.014427947527525     0.001582165722379
1 84
    -0.008551562039978     0.003011761487718     0.002782006115870
     0.002381541589269     0.007975450273353     0.002094284306950
    -0.005107945175839    -0.014427947527525     0.001582165722379
1 85
     0.000153393217433     0.000025726999799    -0.000000000000000
    -0.000033297182365     0.000152593951984     0.000000000000000
    -0.000000000000000     0.000000000000000    -0.000377452761192
1 86
    -0.000053994591034     0.000023425540967    -0.000061038122777
    -0.000004318793965    -0.000028578955479    -0.003439557164450
     0.000377890012783     0.001977608157936    -0.000262867520197
1 87
    -0.000053994591034     0.000023425540967     0.000061038122777
    -0.000004318793965    -0.000028578955479     0.003439557164450
    -0.000377890012783    -0.001977608157936    -0.000262867520197
1 88
     0.000145740328413     0.000017898693072     0.000000000000000
    -0.000027364033763     0.000182528541949     0.000000000000000
     0.000000000000000     0.000000000000000     0.000953048131169
1 89
    -0.000035449629531     0.000014329191133    -0.002345726960253
     0.000005258800315    -0.000010353128016    -0.005169954842684
     0.002378619282650     0.004349584570265     0.000967818054349
1 90
    -0.000035449629531     0.000014329191133     0.002345726960253
     0.000005258800315    -0.000010353128016     0.005169954842684
    -0.002378619282650    -0.004349584570265     0.000967818054349
1 91
    -0.092955114275525    -0.003354351987257     0.022358569643705
    -0.132603565359113    -0.112288555584078     0.186510315601670
     0.065942609161534    -0.044049711757643    -0.069406348417791
1 92
    -0.010531933447258     0.041298984524126     0.000000000000000
    -0.032760166466586    -0.073096059313845     0.000000000000000
     0.000000000000000    -0.000000000000000     0.045270829346066
1 93
    -0.092955114275525    -0.003354351987257    -0.022358569643705
    -0.132603565359113    -0.112288555584078    -0.186510315601670
    -0.065942609161534     0.044049711757643    -0.069406348417791
1 94
     0.000103832960183    -0.000011572197027     0.000174327400314
     0.000026184106745     0.000119027915309    -0.002211457202079
    -0.000172458140157     0.001605270152818     0.000893767438166
1 95
    -0.000249852653270    -0.000034455141929    -0.000000000000000
     0.000002359602872    -0.000274281604482    -0.000000000000000
     0.000000000000000    -0.000000000000000     0.000710540972698
1 96
     0.000103832960183    -0.000011572197027    -0.000174327400314
     0.000026184106745     0.000119027915309     0.002211457202079
     0.000172458140157    -0.001605270152818     0.000893767438166
1 97
    -0.432017451351288     0.006666493663206    -0.000000000000000
     0.080674958883840    -0.130894071065846    -0.000000000000000
    -0.000000000000000    -0.000000000000000     0.408706790300514
1 98
    -0.181372392858902    -0.154716854605158    -0.001017741576640
     0.049725747305147    -0.003915593206363     0.067065234472184
    -0.179771773727355    -0.128361908133549    -0.017727448303673
1 99
    -0.181372392858902    -0.154716854605158     0.001017741576640
     0.049725747305147    -0.003915593206363    -0.067065234472184
     0.179771773727355     0.128361908133549    -0.017727448303673
1 100
     0.000169634900499     0.000012683072603    -0.000000000000000
     0.000022472616986     0.000145407284001    -0.000000000000000
    -0.000000000000000     0.000000000000000     0.001146767886193
1 101
    -0.000024177252453    -0.000027976141307    -0.000199973553355
     0.000002852434529    -0.000063739687289    -0.005147935718713
     0.000244535755596     0.004129190536452     0.000998694217967
1 102
    -0.000024177252453    -0.000027976141307     0.000199973553355
     0.000002852434529    -0.000063739687289     0.005147935718713
    -0.000244535755596    -0.004129190536452     0.000998694217967
1 103
     0.000097433978498     0.000028837901461    -0.000805856417590
     0.000001322753941     0.000131733424803    -0.002451725247057
     0.000791173940729     0.001963629145980     0.000599127920998
1 104
    -0.000263795390005     0.000013399083456     0.000000000000000
     0.000027699870307    -0.000277171564437     0.000000000000000
     0.000000000000000     0.000000000000000     0.000679868838232
1 105
     0.000097433978498     0.000028837901461     0.000805856417590
     0.000001322753941     0.000131733424803     0.002451725247057
    -0.000791173940729    -0.001963629145980     0.000599127920998
1 106
    -1.235266035598647    -0.501833198108174    -0.000000000000000
    -0.675093994861797   -10.669210326361537    -0.000000000000000
     0.000000000000000    -0.000000000000001    -1.405401534432679
1 107
     0.069828814214638     0.349270782794070     0.137682439547277
     0.281776069180561    -0.026196671164873     0.342501883938050
     0.168319748509339     0.259404136440978    -0.046199906017046
1 108
     0.069828814214638     0.349270782794070    -0.137682439547277
     0.281776069180561    -0.026196671164873    -0.342501883938050
    -0.168319748509339    -0.259404136440978    -0.046199906017046
1 109
    -1.771840295035428     0.322976921233273     0.222275694146029
     0.212751174018613    -5.481303909841908    -3.124034551822386
     0.596914089100174    -3.123972704312453    -4.341886825870960
1 110
    -0.026996082693834     0.152486929542980    -0.000000000000000
     0.136304835257642    -0.162531599626630     0.000000000000000
     0.000000000000000    -0.000000000000000    -0.186568952894631
1 111
    -1.771840295035428     0.322976921233273    -0.222275694146029
     0.212751174018613    -5.481303909841908     3.124034551822386
    -0.596914089100174     3.123972704312453    -4.341886825870959
1 112
     0.000115820376275     0.000012060199641    -0.000268614282551
    -0.000007627822260     0.000106491434102    -0.002067566706804
     0.000299936338930     0.001375700875538     0.000076390274664
1 113
    -0.000267492797046    -0.000000853659729     0.000000000000000
     0.000018092278633    -0.000288306946503     0.000000000000000
    -0.000000000000000    -0.000000000000000    -0.000059946702501
1 114
     0.000115820376275     0.000012060199641     0.000268614282551
    -0.000007627822260     0.000106491434102     0.002067566706804
    -0.000299936338930    -0.001375700875538     0.000076390274664
1 115
    -0.057888607534204     0.063991575076225    -0.000000000000000
    -0.101573797545244    -0.221760059252508     0.000000000000000
     0.000000000000000     0.000000000000000     0.361046071372973
1 116
    -0.018665867407957    -0.005591345738959     0.096348829278509
    -0.018659940604232    -0.119710348588776     0.001244042305253
    -0.015127828771783    -0.058876484686440    -0.019070578771556
1 117
    -0.018665867407957    -0.005591345738959    -0.096348829278510
    -0.018659940604232    -0.119710348588776    -0.001244042305253
     0.015127828771783     0.058876484686440    -0.019070578771556
1 118
     0.000114225795279     0.000010871946519    -0.000000000000000
    -0.000028019336542     0.000167471685982     0.000000000000000
    -0.000000000000000    -0.000000000000000     0.000280599259460
1 119
    -0.000066079342041     0.000025192186177    -0.000922990913177
    -0.000010788709306    -0.000029032293763    -0.004587087207627
     0.001081046475091     0.003449663169597     0.000380038135030
1 120
    -0.000066079342041     0.000025192186177     0.000922990913177
    -0.000010788709306    -0.000029032293763     0.004587087207627
    -0.001081046475091    -0.003449663169597     0.000380038135030
1 121
    -5.881588392728567     2.125302120824264    -4.233480512865405
     2.173380356975918    -2.336506425962743     2.226300632037908
    -3.866738284067352     1.612171068485613    -5.126595681830813
1 122
    -0.073307833272594    -0.018583000072892    -0.000000000000000
    -0.090806704576661    -0.126270805618472     0.000000000000000
    -0.000000000000000    -0.000000000000000     0.010762014263314
1 123
    -5.881588392728568     2.125302120824264     4.233480512865407
     2.173380356975918    -2.336506425962743    -2.226300632037909
     3.866738284067352    -1.612171068485613    -5.126595681830814
1 124
     0.000171717731647    -0.000028113284797    -0.000000000000000
     0.000052378275510     0.000133412092153     0.000000000000000
    -0.000000000000000     0.000000000000000     0.000501293110844
1 125
    -0.000011901418106    -0.000036455022427     0.000805612388991
     0.000019876864044    -0.000040981147824    -0.003373626127545
    -0.000625428202812     0.002188640814451     0.000648109015905
1 126
    -0.000011901418106    -0.000036455022427    -0.000805612388991
     0.000019876864044    -0.000040981147824     0.003373626127545
     0.000625428202811    -0.002188640814451     0.000648109015905
1 127
     0.000098545959088    -0.000001779669495     0.000094875311506
     0.000001468313304     0.000108986780772    -0.001278740024602
     0.000153468908746     0.000510217054417    -0.000727574851533
1 128
    -0.000329465893088    -0.000000501183987     0.000000000000000
     0.000003543541472    -0.000269600032849    -0.000000000000000
    -0.000000000000000    -0.000000000000000    -0.000790320209458
1 129
     0.000098545959088    -0.000001779669495    -0.000094875311506
     0.000001468313304     0.000108986780772     0.001278740024602
    -0.000153468908746    -0.000510217054417    -0.000727574851533
1 130
     0.000126337424721     0.000041795481818    -0.001295679617732
     0.000003558202677     0.000111812310218     0.000755144676988
     0.001820776856511    -0.001306229212613    -0.001115346832941
1 131
    -0.000237156386972     0.000013442667520     0.000000000000000
     0.000002300507929    -0.000256033713527    -0.000000000000000
    -0.000000000000000     0.000000000000000    -0.001211653157862
1 132
     0.000126337424721     0.000041795481818     0.001295679617732
     0.000003558202677     0.000111812310218    -0.000755144676988
    -0.001820776856511     0.001306229212613    -0.001115346832941
1 133
    -0.159645617289986    -0.004559805630361     0.092987198562877
     0.014767221362372     0.032977880987604     0.074962559797921
    -0.007080337741931    -0.078657687180538    -0.009262343417992
1 134
    -0.012232115187706    -0.028715237682941    -0.000000000000000
    -0.023542103739810    -0.023716165444047    -0.000000000000000
    -0.000000000000000    -0.000000000000000    -0.006228553754341
1 135
    -0.159645617289986    -0.004559805630361    -0.092987198562877
     0.014767221362372     0.032977880987604    -0.074962559797921
     0.007080337741931     0.078657687180538    -0.009262343417992
1 136
     0.000099710035984     0.000007696411919     0.000453675118459
     0.000017502733031     0.000109979479944    -0.001210177965927
    -0.000304177706070     0.000543244908480     0.000221073153861
1 137
    -0.000247326805612     0.000015762465229     0.000000000000000
     0.000026169249490    -0.000287103203673    -0.000000000000000
    -0.000000000000000    -0.000000000000000     0.000154017729601
1 138
     0.000099710035984     0.000007696411919    -0.000453675118459
     0.000017502733031     0.000109979479944     0.001210177965927
     0.000304177706070    -0.000543244908480     0.000221073153861
1 139
     0.002391660390043     0.001902741864732    -0.000000000000000
     0.001643397721390     0.000680240518732     0.000000000000000
    -0.000000000000000     0.000000000000000    -0.000331861259230
1 140
     0.011438655752126     0.000217300701558    -0.000878049706990
     0.002170645209271    -0.000937447122219    -0.001077727756493
     0.007284085961192    -0.000397764490441     0.000274776734629
1 141
     0.011438655752126     0.000217300701558     0.000878049706990
     0.002170645209271    -0.000937447122219     0.001077727756493
    -0.007284085961192     0.000397764490441     0.000274776734629
1 142
     0.005394027611609     0.004505655963065    -0.000000000000000
     0.000271763548260     0.000914612783502     0.000000000000000
     0.000000000000000     0.000000000000000    -0.001188153565747
1 143
     0.004438905038868     0.002062086421069    -0.005688815968056
     0.002076483072578     0.000823479847070    -0.001115859828064
     0.009708740193643     0.001573886306906    -0.000301405821833
1 144
     0.004438905038868     0.002062086421069     0.005688815968056
     0.002076483072578     0.000823479847070     0.001115859828064
    -0.009708740193643    -0.001573886306906    -0.000301405821833
1 145
     0.000157662129095    -0.000005454773805     0.000000000000000
    -0.000005783002019     0.000150440272936    -0.000000000000000
    -0.000000000000000     0.000000000000000    -0.001106119291724
1 146
    -0.000083032865191    -0.000009418379371     0.000195454678771