  72  216
1 1
    24.912074681116859    -1.709670812923754    -0.000000000000002
    -1.709670812923754    28.899283315802201     0.000000000000001
    -0.000000000000002     0.000000000000001    26.833411795788511
1 2
    -0.064248945761895    -0.372167414361948     1.143322976411831
    -0.372167414361948     0.325265825660014     0.569427808634237
    -1.143322976411832    -0.569427808634237    -1.392827801236465
1 3
    -0.064248945761895    -0.372167414361948    -1.143322976411832
    -0.372167414361948     0.325265825660014    -0.569427808634237
     1.143322976411831     0.569427808634237    -1.392827801236465
1 4
    -0.005832048566943    -0.005269342657292    -0.006518229374284
    -0.015050356011513    -0.013325238854455    -0.003412838713629
     0.002574749303301    -0.006148381718388     0.002695368453070
1 5
    -0.001750686283802    -0.003887344421654    -0.000000000000000
    -0.002942292865871    -0.009004559052031    -0.000000000000000
    -0.000000000000000     0.000000000000000    -0.001903766742025
1 6
    -0.005832048566943    -0.005269342657292     0.006518229374284
    -0.015050356011513    -0.013325238854455     0.003412838713629
    -0.002574749303301     0.006148381718388     0.002695368453070
1 7
     0.000295122749773    -0.000001314464670    -0.003569347690972
    -0.000021222684927     0.000278080251835    -0.004783906719296
     0.002233185746138     0.001622251556604    -0.009449921513019
1 8
    -0.000734562108887     0.000001362209870     0.000000000000000
    -0.000024824573133    -0.000724809362375    -0.000000000000000
    -0.000000000000000     0.000000000000000    -0.009693551583770
1 9
     0.000295122749773    -0.000001314464670     0.003569347690972
    -0.000021222684927     0.000278080251835     0.004783906719295
    -0.002233185746138    -0.001622251556604    -0.009449921513019
1 10
    -0.000000000000000     0.000000000000000    -0.000000000000000
    -0.000000000000000     0.000000000000000    -0.000000000000000
     0.000000000000000    -0.000000000000000     0.000000000000000
1 11
    -0.000000000000000    -0.000000000000000     0.000000000000000
     0.000000000000000     0.000000000000000    -0.000000000000000
     0.000000000000000    -0.000000000000000     0.000000000000000
1 12
     0.000000000000000     0.000000000000000     0.000000000000000
    -0.000000000000000     0.000000000000000    -0.000000000000000
    -0.000000000000000    -0.000000000000000     0.000000000000000
1 13
     0.236719854891353    -0.969419684694444    -0.503630690605050
    -0.316033482687295    -0.195474330515004    -0.858777327085303
     0.785494528464582     1.187273252373972    -0.453136871414128
1 14
    -0.133566164039188    -0.043141459100605    -0.000000000000000
    -0.007480824918866    -0.162484855411898     0.000000000000000
     0.000000000000000    -0.000000000000000    -0.044648956678296
1 15
     0.236719854891353    -0.969419684694444     0.503630690605050
    -0.316033482687296    -0.195474330515004     0.858777327085303
    -0.785494528464582    -1.187273252373972    -0.453136871414128
1 16
    -0.000000000000000    -0.000000000000000     0.000000000000000
     0.000000000000000     0.000000000000000     0.000000000000000
     0.000000000000000    -0.000000000000000     0.000000000000000
1 17
    -0.000000000000000    -0.000000000000000     0.000000000000000
     0.000000000000000     0.000000000000000    -0.000000000000000
     0.000000000000000    -0.000000000000000     0.000000000000000
1 18
    -0.000000000000000    -0.000000000000000     0.000000000000000
     0.000000000000000     0.000000000000000    -0.000000000000000
     0.000000000000000    -0.000000000000000     0.000000000000000
1 19
    -0.000000000000000    -0.000000000000000     0.000000000000000
     0.000000000000000     0.000000000000000     0.000000000000000
     0.000000000000000    -0.000000000000000     0.000000000000000
1 20
    -0.000000000000000    -0.000000000000000     0.000000000000000
     0.000000000000000     0.000000000000000    -0.000000000000000
    -0.000000000000000    -0.000000000000000     0.000000000000000
1 21
    -0.000000000000000    -0.000000000000000    -0.000000000000000
     0.000000000000000     0.000000000000000    -0.000000000000000
     0.000000000000000    -0.000000000000000     0.000000000000000
1 22
    -0.000000000000000    -0.000000000000000     0.000000000000000
     0.000000000000000     0.000000000000000    -0.000000000000000
     0.000000000000000    -0.000000000000000     0.000000000000000
1 23
    -0.000000000000000    -0.000000000000000    -0.000000000000000
     0.000000000000000     0.000000000000000     0.000000000000000
     0.000000000000000    -0.000000000000000     0.000000000000000
1 24
    -0.000000000000000    -0.000000000000000     0.000000000000000
     0.000000000000000     0.000000000000000    -0.000000000000000
    -0.000000000000000    -0.000000000000000     0.000000000000000
1 25
     0.000353330702224     0.000034965012860     0.000000000000000
    -0.000045840201311     0.000421643922993    -0.000000000000000
     0.000000000000000     0.000000000000000    -0.015661374167147
1 26
    -0.000000000000000     0.000000000000000    -0.000000000000000
     0.000000000000000    -0.000000000000000     0.000000000000000
     0.000000000000000    -0.000000000000000     0.000000000000000
1 27
     0.000000000000000     0.000000000000000     0.000000000000000
     0.000000000000000     0.000000000000000    -0.000000000000000
    -0.000000000000000     0.000000000000000     0.000000000000000
1 28
    -0.000000000000000    -0.000000000000000     0.000000000000000
     0.000000000000000     0.000000000000000     0.000000000000000
    -0.000000000000000    -0.000000000000000     0.000000000000000
1 29
    -0.000000000000000    -0.000000000000000     0.000000000000000
     0.000000000000000     0.000000000000000    -0.000000000000000
     0.000000000000000    -0.000000000000000     0.000000000000000
1 30
    -0.000000000000000    -0.000000000000000    -0.000000000000000
     0.000000000000000     0.000000000000000     0.000000000000000
     0.000000000000000    -0.000000000000000     0.000000000000000
1 31
    -0.000000000000000    -0.000000000000000    -0.000000000000000
     0.000000000000000     0.000000000000000     0.000000000000000
     0.000000000000000    -0.000000000000000     0.000000000000000
1 32
    -0.000000000000000    -0.000000000000000     0.000000000000000
     0.000000000000000     0.000000000000000    -0.000000000000000
     0.000000000000000    -0.000000000000000     0.000000000000000
1 33
    -0.000000000000000    -0.000000000000000     0.000000000000000
     0.000000000000000     0.000000000000000    -0.000000000000000
    -0.000000000000000    -0.000000000000000     0.000000000000000
1 34
     0.000557393353457     0.004195035050572    -0.000000000000000
     0.000265945257046     0.005997641353898    -0.000000000000000
     0.000000000000000    -0.000000000000000    -0.003699029175609
1 35
     0.000037692228438     0.001849506107849    -0.009040877569031
     0.000414680145311     0.002764703275956    -0.009098165411455
     0.005545664543274     0.003328152087196    -0.003593637725109
1 36
     0.000037692228438     0.001849506107849     0.009040877569031
     0.000414680145311     0.002764703275956     0.009098165411455
    -0.005545664543274    -0.003328152087196    -0.003593637725109
1 37
     0.000421643922993    -0.000034965012860     0.000000000000000
     0.000045840201311     0.000353330702224    -0.000000000000000
    -0.000000000000000    -0.000000000000000    -0.015661374167147
1 38
    -0.000000000000000    -0.000000000000000     0.000000000000000
     0.000000000000000     0.000000000000000    -0.000000000000000
    -0.000000000000000    -0.000000000000000     0.000000000000000
1 39
     0.000000000000000    -0.000000000000000    -0.000000000000000
     0.000000000000000     0.000000000000000     0.000000000000000
     0.000000000000000    -0.000000000000000     0.000000000000000
1 40
    -0.000000000000000     0.000000000000000    -0.000000000000000
    -0.000000000000000    -0.000000000000000    -0.000000000000000
     0.000000000000000    -0.000000000000000     0.000000000000000
1 41
    -0.000000000000000    -0.000000000000000    -0.000000000000000
     0.000000000000000     0.000000000000000    -0.000000000000000
     0.000000000000000    -0.000000000000000     0.000000000000000
1 42
     0.000000000000000     0.000000000000000     0.000000000000000
    -0.000000000000000     0.000000000000000    -0.000000000000000
    -0.000000000000000    -0.000000000000000     0.000000000000000
1 43
    -0.000000000000000     0.000000000000000     0.000000000000000
    -0.000000000000000     0.000000000000000    -0.000000000000000
     0.000000000000000    -0.000000000000000     0.000000000000000
1 44
    -0.000000000000000    -0.000000000000000    -0.000000000000000
     0.000000000000000     0.000000000000000     0.000000000000000
     0.000000000000000    -0.000000000000000     0.000000000000000
1 45
     0.000000000000000    -0.000000000000000     0.000000000000000
     0.000000000000000     0.000000000000000    -0.000000000000000
    -0.000000000000000    -0.000000000000000     0.000000000000000
1 46
    -0.027902846900202     0.025392223450399    -0.000000000000000
     0.054254569695808    -0.055060704137278    -0.000000000000000
     0.000000000000000    -0.000000000000000    -0.081708343877994
1 47
    -0.077382425182555    -0.004512352650842     0.035441052409563
    -0.019205350538936    -0.092367755760284     0.039781810014195
     0.064281783490421     0.071943206604126    -0.030721965959452
1 48
    -0.077382425182555    -0.004512352650842    -0.035441052409563
    -0.019205350538936    -0.092367755760284    -0.039781810014195
    -0.064281783490421    -0.071943206604126    -0.030721965959452
1 49
     0.006589931227881    -0.000718323020713     0.000000000000000
     0.003219160684404    -0.000026589252486     0.000000000000000
    -0.000000000000000     0.000000000000000    -0.003695660845345
1 50
     0.003053401876421    -0.000092323999201    -0.005557192133645
     0.001293481890768    -0.000209738710302     0.003209436630891
     0.012134791940420    -0.003351869919871    -0.003553090824919
1 51
     0.003053401876421    -0.000092323999201     0.005557192133645
     0.001293481890768    -0.000209738710302    -0.003209436630891
    -0.012134791940420     0.003351869919871    -0.003553090824919
1 52
    -0.019723775791144    -0.008649390344149     0.002298931922529
     0.001199463512776     0.000574070698414     0.005916964661295
     0.006982015096925    -0.002253230810461     0.002834361330985
1 53
    -0.008795702323578    -0.003156299533932     0.000000000000000
    -0.004155548636616    -0.001966770951147     0.000000000000000
    -0.000000000000000     0.000000000000000    -0.001806328714180
1 54
    -0.019723775791144    -0.008649390344149    -0.002298931922529
     0.001199463512776     0.000574070698414    -0.005916964661294
    -0.006982015096925     0.002253230810461     0.002834361330985
1 55
    -0.113616795626235    -0.337889688510658    -1.066020805405170
    -0.991352038307256     0.154886465298235    -0.943841691158698
     0.708729031538334     0.699135574303378    -0.453093866819172
1 56
    -0.148165330973499    -0.011328122043497    -0.000000000000000
    -0.047006003061166    -0.147836207970481     0.000000000000000
    -0.000000000000000    -0.000000000000000    -0.044570574513836
1 57
    -0.113616795626235    -0.337889688510658     1.066020805405170
    -0.991352038307256     0.154886465298235     0.943841691158697
    -0.708729031538334    -0.699135574303378    -0.453093866819173
1 58
    -0.000000000000000     0.000000000000000    -0.000000000000000
    -0.000000000000000     0.000000000000000    -0.000000000000000
     0.000000000000000    -0.000000000000000     0.000000000000000
1 59
    -0.000000000000000    -0.000000000000000     0.000000000000000
     0.000000000000000     0.000000000000000    -0.000000000000000
     0.000000000000000    -0.000000000000000     0.000000000000000
1 60
    -0.000000000000000     0.000000000000000     0.000000000000000
    -0.000000000000000     0.000000000000000    -0.000000000000000
    -0.000000000000000    -0.000000000000000     0.000000000000000
1 61
    -0.000000000000000     0.000000000000000     0.000000000000000
    -0.000000000000000     0.000000000000000    -0.000000000000000
     0.000000000000000    -0.000000000000000     0.000000000000000
1 62
    -0.000000000000000     0.000000000000000    -0.000000000000000
     0.000000000000000    -0.000000000000000     0.000000000000000
     0.000000000000000    -0.000000000000000     0.000000000000000
1 63
     0.000000000000000     0.000000000000000     0.000000000000000
     0.000000000000000     0.000000000000000    -0.000000000000000
    -0.000000000000000     0.000000000000000     0.000000000000000
1 64
    -0.000000000000000     0.000000000000000    -0.000000000000000
    -0.000000000000000     0.000000000000000    -0.000000000000000
     0.000000000000000    -0.000000000000000     0.000000000000000
1 65
    -0.000000000000000     0.000000000000000    -0.000000000000000
    -0.000000000000000    -0.000000000000000     0.000000000000000
     0.000000000000000    -0.000000000000000     0.000000000000000
1 66
     0.000000000000000     0.000000000000000     0.000000000000000
     0.000000000000000     0.000000000000000    -0.000000000000000
    -0.000000000000000     0.000000000000000     0.000000000000000
1 67
     0.000270999310639    -0.000002394562757    -0.002277698358996
     0.000038086077601     0.000260208260270     0.001586732128107
     0.005458937477655    -0.002283778535386    -0.009573239886764
1 68
    -0.000700448547590     0.000000929753826     0.000000000000000
     0.000051920844887    -0.000755969600095    -0.000000000000000
    -0.000000000000000     0.000000000000000    -0.009394331985707
1 69
     0.000270999310639    -0.000002394562757     0.002277698358996
     0.000038086077601     0.000260208260270    -0.001586732128107
    -0.005458937477655     0.002283778535386    -0.009573239886764
1 70
    -0.000264925413861     0.022555347097750    -0.000000000000000
    -0.006304044171662    -0.082669904738743     0.000000000000000
    -0.000000000000000    -0.000000000000000    -0.082154760009539
1 71
    -0.091442078033400    -0.019764797453952    -0.091369910572063
    -0.005039354606672    -0.078347860984389    -0.029894675082293
    -0.050671890339341    -0.016644535176358    -0.030896924324899
1 72
    -0.091442078033400    -0.019764797453952     0.091369910572063
    -0.005039354606672    -0.078347860984389     0.029894675082293
     0.050671890339341     0.016644535176358    -0.030896924324899
1 73
     0.017755008051876     0.013682038591011    -0.016814007837884
     0.009250321575743     0.016827162018416    -0.013668007789814
     0.006356502192308     0.004412063375102     0.000903076313559
1 74
     0.000759502677023     0.001178763737516     0.000000000000000
    -0.005149342460164    -0.002567211972930     0.000000000000000
     0.000000000000000     0.000000000000000    -0.006967509216957
1 75
     0.017755008051876     0.013682038591011     0.016814007837884
     0.009250321575743     0.016827162018416     0.013668007789814
    -0.006356502192308    -0.004412063375102     0.000903076313559
1 76
    -6.507052446140472    -0.219619800325836     0.000000000000001
    -0.069500052975328    -1.450948349030334     0.000000000000000
     0.000000000000001     0.000000000000000    -1.733407403287043
1 77
    -0.024933290647233     0.157570760771629     0.267447240005130
     0.324841018147247     0.102389748892358     0.027199568357360
     0.143252648331477     0.092281805332284     0.025843910443347
1 78
    -0.024933290647233     0.157570760771629    -0.267447240005130
     0.324841018147247     0.102389748892358    -0.027199568357360
    -0.143252648331477    -0.092281805332284     0.025843910443347
1 79
     0.000099947001193     0.005451897918525    -0.003212660763378
     0.000906715811960     0.008884895275588    -0.004478226443751
     0.002999604111045     0.000306024975514    -0.001740985965943
1 80
    -0.000439781112752     0.003656028260338    -0.000000000000000
     0.000866837983973     0.005559770988749    -0.000000000000000
    -0.000000000000000    -0.000000000000000     0.000858179734528
1 81
     0.000099947001193     0.005451897918525     0.003212660763378
     0.000906715811960     0.008884895275588     0.004478226443751
    -0.002999604111045    -0.000306024975514    -0.001740985965943
1 82
    -0.004770467944555     0.027874605000542    -0.000000000000000
     0.009773018033670     0.067478338911848    -0.000000000000000
    -0.000000000000000    -0.000000000000000     0.005252436475459
1 83
    -0.008622821188985     0.003001186998212    -0.004731754428823
     0.002359844846182     0.007904476613765    -0.003455716298223
     0.008493240946161     0.013087064806327     0.000910582893694
1 84
    -0.008622821188985     0.003001186998212     0.004731754428823
     0.002359844846182     0.007904476613765     0.003455716298223
    -0.008493240946161    -0.013087064806327     0.000910582893694
1 85
    -0.000000000000000     0.000000000000000     0.000000000000000
    -0.000000000000000     0.000000000000000    -0.000000000000000
     0.000000000000000    -0.000000000000000     0.000000000000000
1 86
    -0.000000000000000     0.000000000000000    -0.000000000000000
    -0.000000000000000    -0.000000000000000     0.000000000000000
     0.000000000000000    -0.000000000000000     0.000000000000000
1 87
     0.000000000000000     0.000000000000000     0.000000000000000
     0.000000000000000     0.000000000000000    -0.000000000000000
    -0.000000000000000     0.000000000000000     0.000000000000000
1 88
     0.000377551176939     0.000010452505728     0.000000000000000
    -0.000049543057861     0.000408400067945    -0.000000000000000
     0.000000000000000     0.000000000000000    -0.002988208121653
1 89
    -0.000102769173425     0.000006883003788    -0.004137080268541
    -0.000016920223783    -0.000083611994442    -0.006799441596460
     0.004975293193456     0.002936113432375    -0.002973438198473
1 90
    -0.000102769173425     0.000006883003788     0.004137080268541
    -0.000016920223783    -0.000083611994442     0.006799441596460
    -0.004975293193456    -0.002936113432375    -0.002973438198473
1 91
    -0.092803628211045    -0.003369287016123     0.021355638607977
    -0.132620911211974    -0.112135585686712     0.185911727139366
     0.067825847805155    -0.044779230959212    -0.069054126837906
1 92
    -0.010978708167620     0.041284049495260    -0.000000000000000
    -0.032777512319447    -0.073541350201321     0.000000000000000
     0.000000000000000    -0.000000000000000     0.045623050925950
1 93
    -0.092803628211045    -0.003369287016123    -0.021355638607977
    -0.132620911211974    -0.112135585686712    -0.185911727139366
    -0.067825847805155     0.044779230959212    -0.069054126837906
1 94
    -0.000000000000000     0.000000000000000    -0.000000000000000
    -0.000000000000000    -0.000000000000000    -0.000000000000000
     0.000000000000000    -0.000000000000000     0.000000000000000
1 95
    -0.000000000000000    -0.000000000000000    -0.000000000000000
     0.000000000000000     0.000000000000000    -0.000000000000000
     0.000000000000000    -0.000000000000000     0.000000000000000
1 96
     0.000000000000000     0.000000000000000     0.000000000000000
    -0.000000000000000     0.000000000000000    -0.000000000000000
    -0.000000000000000    -0.000000000000000     0.000000000000000
1 97
    -0.431805788194235     0.006657992571401    -0.000000000000000
     0.080669948721085    -0.130666999751564    -0.000000000000000
    -0.000000000000000     0.000000000000000     0.408891801943207
1 98
    -0.181459860094270    -0.154725355696962    -0.002868069019565
     0.049720737142392    -0.003987652284501     0.066328466852518
    -0.175210326942196    -0.130680314792557    -0.017542436660980
1 99
    -0.181459860094270    -0.154725355696962     0.002868069019565
     0.049720737142392    -0.003987652284501    -0.066328466852518
     0.175210326942196     0.130680314792557    -0.017542436660980
1 100
    -0.000000000000000     0.000000000000000    -0.000000000000000
    -0.000000000000000    -0.000000000000000    -0.000000000000000
     0.000000000000000    -0.000000000000000     0.000000000000000
1 101
    -0.000000000000000     0.000000000000000    -0.000000000000000
     0.000000000000000    -0.000000000000000     0.000000000000000
     0.000000000000000    -0.000000000000000     0.000000000000000
1 102
     0.000000000000000     0.000000000000000     0.000000000000000
     0.000000000000000     0.000000000000000    -0.000000000000000
    -0.000000000000000     0.000000000000000     0.000000000000000
1 103
     0.000248756554846     0.000030282576462    -0.001624208275613
    -0.000026090412387     0.000282082672271    -0.003306490748533
     0.001912901312960     0.001163868926355    -0.005334825147909
1 104
    -0.000710733598498     0.000014843758457     0.000000000000000
     0.000000286703979    -0.000725083101809    -0.000000000000000
    -0.000000000000000    -0.000000000000000    -0.005254084230676
1 105
     0.000248756554846     0.000030282576462     0.001624208275613
    -0.000026090412387     0.000282082672271     0.003306490748533
    -0.001912901312960    -0.001163868926355    -0.005334825147909
1 106
    -1.235046796595306    -0.501843987781432    -0.000000000000000
    -0.675108607952054   -10.668984503653457    -0.000000000000000
    -0.000000000000000    -0.000000000000001    -1.404569311091294
1 107
     0.069748922825559     0.349259993120812     0.135693322203430
     0.281761456090303    -0.026269978849215     0.341465573987107
     0.172424003704863     0.257732195609972    -0.045367682675661
1 108
     0.069748922825559     0.349259993120812    -0.135693322203431
     0.281761456090303    -0.026269978849215    -0.341465573987107
    -0.172424003704863    -0.257732195609972    -0.045367682675661
1 109
    -1.771673438274185     0.322971210627618     0.222134993744106
     0.212768974271292    -5.481147457962239    -3.125624466352740
     0.599318760633026    -3.124812069398263    -4.340320550030388
1 110
    -0.027427486717431     0.152481218937326    -0.000000000000000
     0.136322635510321    -0.162973408531800     0.000000000000000
     0.000000000000000    -0.000000000000000    -0.185002677054059
1 111
    -1.771673438274184     0.322971210627618    -0.222134993744105
     0.212768974271292    -5.481147457962239     3.125624466352740
    -0.599318760633026     3.124812069398263    -4.340320550030388
1 112
    -0.000000000000000     0.000000000000000    -0.000000000000000
    -0.000000000000000     0.000000000000000    -0.000000000000000
     0.000000000000000    -0.000000000000000     0.000000000000000
1 113
    -0.000000000000000    -0.000000000000000    -0.000000000000000
     0.000000000000000     0.000000000000000    -0.000000000000000
     0.000000000000000    -0.000000000000000     0.000000000000000
1 114
     0.000000000000000     0.000000000000000     0.000000000000000
    -0.000000000000000     0.000000000000000    -0.000000000000000
    -0.000000000000000    -0.000000000000000     0.000000000000000
1 115
    -0.057650941178322     0.063980351610369    -0.000000000000000
    -0.101549961720321    -0.221540018869947     0.000000000000000
     0.000000000000000     0.000000000000000     0.362273477421253
1 116
    -0.018727331444496    -0.005602569204816     0.095494035003828
    -0.018636104779309    -0.119789438598635    -0.002136400713876
    -0.010073072654996    -0.061030529583870    -0.017843172723276
1 117
    -0.018727331444496    -0.005602569204816    -0.095494035003828
    -0.018636104779309    -0.119789438598635     0.002136400713876
     0.010073072654996     0.061030529583870    -0.017843172723276
1 118
    -0.000000000000000     0.000000000000000    -0.000000000000000
    -0.000000000000000     0.000000000000000    -0.000000000000000
     0.000000000000000    -0.000000000000000     0.000000000000000
1 119
    -0.000000000000000     0.000000000000000    -0.000000000000000
    -0.000000000000000    -0.000000000000000     0.000000000000000
     0.000000000000000    -0.000000000000000     0.000000000000000
1 120
     0.000000000000000     0.000000000000000     0.000000000000000
     0.000000000000000     0.000000000000000    -0.000000000000000
    -0.000000000000000     0.000000000000000     0.000000000000000
1 121
    -5.881449264430866     2.125293799928262    -4.234445698711456
     2.173367901201755    -2.336355528318995     2.225854923431954
    -3.864550585325452     1.611188474739280    -5.125822372126635
1 122
    -0.073766965759734    -0.018591320968894    -0.000000000000000
    -0.090819160350823    -0.126718168759563     0.000000000000000
    -0.000000000000000    -0.000000000000000     0.011535323967493
1 123
    -5.881449264430866     2.125293799928262     4.234445698711457
     2.173367901201755    -2.336355528318995    -2.225854923431954
     3.864550585325453    -1.611188474739280    -5.125822372126636
1 124
    -0.000000000000000     0.000000000000000     0.000000000000000
    -0.000000000000000     0.000000000000000    -0.000000000000000
     0.000000000000000    -0.000000000000000     0.000000000000000
1 125
    -0.000000000000000     0.000000000000000    -0.000000000000000
    -0.000000000000000    -0.000000000000000     0.000000000000000
     0.000000000000000    -0.000000000000000     0.000000000000000
1 126
     0.000000000000000     0.000000000000000     0.000000000000000
     0.000000000000000     0.000000000000000    -0.000000000000000
    -0.000000000000000     0.000000000000000     0.000000000000000
1 127
    -0.000000000000000     0.000000000000000    -0.000000000000000
    -0.000000000000000     0.000000000000000    -0.000000000000000
     0.000000000000000    -0.000000000000000     0.000000000000000
1 128
    -0.000000000000000    -0.000000000000000     0.000000000000000
     0.000000000000000     0.000000000000000    -0.000000000000000
     0.000000000000000    -0.000000000000000     0.000000000000000
1 129
     0.000000000000000     0.000000000000000     0.000000000000000
    -0.000000000000000     0.000000000000000    -0.000000000000000
    -0.000000000000000    -0.000000000000000     0.000000000000000
1 130
    -0.000000000000000    -0.000000000000000     0.000000000000000
     0.000000000000000     0.000000000000000     0.000000000000000
    -0.000000000000000    -0.000000000000000     0.000000000000000
1 131
    -0.000000000000000    -0.000000000000000     0.000000000000000
     0.000000000000000     0.000000000000000    -0.000000000000000
     0.000000000000000    -0.000000000000000     0.000000000000000
1 132
    -0.000000000000000    -0.000000000000000    -0.000000000000000
     0.000000000000000     0.000000000000000     0.000000000000000
     0.000000000000000    -0.000000000000000     0.000000000000000
1 133
    -0.159479091307085    -0.004556239575968     0.093304656277018
     0.014773113621424     0.033148487174427     0.073771290578628
    -0.005080714381415    -0.079154654332051    -0.007110415825168
1 134
    -0.012663849989646    -0.028711671628548    -0.000000000000000
    -0.023536211480758    -0.024143820042064     0.000000000000000
    -0.000000000000000    -0.000000000000000    -0.004076626161517
1 135
    -0.159479091307085    -0.004556239575968    -0.093304656277018
     0.014773113621424     0.033148487174427    -0.073771290578628
     0.005080714381415     0.079154654332051    -0.007110415825168
1 136
    -0.000000000000000     0.000000000000000    -0.000000000000000
    -0.000000000000000    -0.000000000000000    -0.000000000000000
     0.000000000000000    -0.000000000000000     0.000000000000000
1 137
    -0.000000000000000    -0.000000000000000     0.000000000000000
     0.000000000000000     0.000000000000000    -0.000000000000000
     0.000000000000000    -0.000000000000000     0.000000000000000
1 138
     0.000000000000000     0.000000000000000     0.000000000000000
    -0.000000000000000     0.000000000000000    -0.000000000000000
    -0.000000000000000    -0.000000000000000     0.000000000000000
1 139
     0.002605118504025     0.001905227153860     0.000000000000000
     0.001648745050885     0.000895924771337     0.000000000000000
    -0.000000000000000     0.000000000000000    -0.002798343690622
1 140
     0.011352983473688     0.000219785990686    -0.002460322387412
     0.002175992538765    -0.001020893262035    -0.001656100371495
     0.011918121163042    -0.003504793008964    -0.002191705696763
1 141
     0.011352983473688     0.000219785990686     0.002460322387412
     0.002175992538765    -0.001020893262035     0.001656100371495
    -0.011918121163042     0.003504793008964    -0.002191705696763
1 142
     0.005625758693170     0.004487577231339    -0.000000000000000
     0.000305784777872     0.001116414013294     0.000000000000000
    -0.000000000000000     0.000000000000000    -0.000733477975105
1 143
     0.004371505728009     0.002044007689343    -0.007717930422482
     0.002110504302190     0.000726150684441    -0.004459681477703
     0.014852059899531    -0.001637353552672     0.000153269768809
1 144
     0.004371505728009     0.002044007689343     0.007717930422482
     0.002110504302190     0.000726150684441     0.004459681477703
    -0.014852059899531     0.001637353552672     0.000153269768809
1 145
    -0.000000000000000     0.000000000000000     0.000000000000000
    -0.000000000000000     0.000000000000000    -0.000000000000000
     0.000000000000000    -0.000000000000000     0.000000000000000
1 146
    -0.000000000000000    -0.000000000000000    -0.000000000000000