  16   48
1 1
    17.107846758365273    -0.000000000000000     2.243113703743114
    -0.000000000000000    40.319375272163768    -0.000000000000000
     2.243113703743114    -0.000000000000000    55.212315858651920
1 2
     0.048207236907090    -0.000000000000000    -0.380718017511798
    -0.000000000000000     0.048769238292779     0.000000000000000
     0.047421795728177    -0.000000000000000     0.635822443136017
1 3
     0.048207236907090    -0.000000000000000     0.047421795728177
    -0.000000000000000     0.048769238292779    -0.000000000000000
    -0.380718017511798     0.000000000000000     0.635822443136017
1 4
     0.134243928899507     0.316367784200885     0.360667351639240
     0.057925066302080    -0.239852387410080    -0.322913942244714
    -0.026612498470085    -0.483330343569416    -0.608713488323179
1 5
    -0.013203176765229    -0.017581137153683     0.005154535220907
     0.001559903003399     0.002659157231569     0.136873459229854
    -0.100552857451143     0.093129414006815    -0.302373385052693
1 6
    -4.281891328446440     3.810693680370524    -2.523064817594071
     5.435310735895450   -13.528140006501310     2.791337651634238
    -0.189501505103937     3.757698759717147    -7.992387696863648
1 7
     0.312128388944868    -0.638109487413430    -0.135759607683826
     0.141066118833164     0.343805136452219    -1.953652304582360
     1.439538574068911    -1.653322433402043    -2.599575620838938
1 8
     0.006908693678362    -0.002403689900524    -0.000936069817007
     0.005659825064034     0.003519279727184     0.009315347924969
     0.006293489200698    -0.007141794686466     0.083584194366789
1 9
     0.079406536344133    -0.405666352990282    -0.150967931210139
     0.373610581950021     0.576383781854422     2.187037348891935
    -1.477186035854130     1.285510596073019    -2.599561883830963
1 10
    -0.814396003915802     1.320013002971720     0.114622251859493
     0.734386481533505    -0.814396003915802     0.112612768591572
    -0.112612768591572    -0.114622251859493    -1.303910333035321
1 11
     0.018041493392509    -0.010863822760816    -0.045506804090323
    -0.016954825321976     0.018041493392510     0.077216140008356
    -0.077216140008355     0.045506804090324     0.204385284496664
1 12
     0.241075267710515     0.365428386909634    -0.514688575737961
    -0.506849772800246     0.241075267710516    -0.365886097755876
     0.365886097755876     0.514688575737961    -0.821155667608411
1 13
    -1.964302978720107     2.536842832281641     0.815829902086213
     2.126435861351960    -1.964302978720107    -0.201844934365824
    -0.201844934365824     0.815829902086213     2.176105199078290
1 14
    -0.011586805906601    -0.018805492375304    -0.171722525083063
     0.075883339406669    -0.021216898560642     0.013685449460295
     0.061709804075035     0.089829053064020    -0.090329737531294
1 15
    -0.021216898560643    -0.018805492375304     0.089829053064020
     0.075883339406669    -0.011586805906600     0.061709804075035
     0.013685449460294    -0.171722525083063    -0.090329737531294
1 16
    -0.165600458165361    -0.023981661314157     0.324124190464079
     0.248688749660926     0.059296073971567    -0.296872082952011
     0.439543035009110    -0.019589863951258    -0.631924180716363
1 17
     0.032437056126211     0.001802360378414     0.046838175684066
    -0.053198348328588    -0.018953972639575    -0.076341132471637
     0.086816356851037     0.020962816051034     0.138937640649180
1 18
     0.239196419190423    -0.053279918945204    -0.051901629162049
    -0.178533437980760     0.007552166221473    -0.397839601092206
     0.244360189999195     0.317887020900381     0.199342962359457
1 19
     0.469015051483651     0.061016204989906     0.056834805914324
    -0.133519399395629    -0.083054058854042     0.256344042823551
     0.208917344396787    -0.285912222715562    -0.006014585973583
1 20
     0.003679788582221    -0.000496884671755    -0.004206494400010
    -0.000282277650236     0.002781832061481     0.002066807325445
     0.004290836243808    -0.001476606927591     0.012785671860490
1 21
     0.229242810759738    -0.178824175925616    -0.349786414322195
    -0.373395529200758     0.156700557873072    -0.054399221709186
     0.140916714897275     0.221541955580468    -0.005745113763704
1 22
     0.086598029524695     0.000000000000000     0.147069926926608
    -0.000000000000000     0.022418217782128    -0.000000000000000
     0.147069926926608     0.000000000000000     0.151227432317482
1 23
     0.006594050849286     0.000000000000000    -0.017704612456626
    -0.000000000000000    -0.006623616567001    -0.000000000000000
    -0.017704612456625    -0.000000000000000     0.035434263074220
1 24
    -0.508397442863093     0.000000000000000    -0.730973345374154
    -0.000000000000000     0.126476563189597    -0.000000000000000
    -0.730973345374154     0.000000000000000    -0.854884605840399
1 25
    -0.547735221427899     0.000000000000000     0.673178223022833
    -0.000000000000000    -0.244248557593829     0.000000000000000
    -0.673178223022833     0.000000000000000     0.838916650056289
1 26
     0.040555468328131     0.000000000000000    -0.100461230008197
    -0.000000000000000    -0.096058250192212     0.000000000000000
    -0.151715924788416     0.000000000000000     0.151259670630479
1 27
     0.040555468328131     0.000000000000000     0.151715924788417
    -0.000000000000000    -0.096058250192212    -0.000000000000000
     0.100461230008197     0.000000000000000     0.151259670630479
1 28
    -0.165600458165362     0.023981661314157     0.324124190464079
    -0.248688749660926     0.059296073971567     0.296872082952011
     0.439543035009110     0.019589863951258    -0.631924180716363
1 29
     0.032437056126211    -0.001802360378414     0.046838175684066
     0.053198348328588    -0.018953972639575     0.076341132471637
     0.086816356851037    -0.020962816051034     0.138937640649180
1 30
     0.239196419190423     0.053279918945204    -0.051901629162049
     0.178533437980760     0.007552166221473     0.397839601092206
     0.244360189999195    -0.317887020900381     0.199342962359457
1 31
     0.469015051483651    -0.061016204989906     0.056834805914324
     0.133519399395629    -0.083054058854042    -0.256344042823551
     0.208917344396787     0.285912222715562    -0.006014585973583
1 32
     0.003679788582221     0.000496884671755    -0.004206494400010
     0.000282277650236     0.002781832061481    -0.002066807325445
     0.004290836243808     0.001476606927591     0.012785671860490
1 33
     0.229242810759737     0.178824175925616    -0.349786414322195
     0.373395529200758     0.156700557873072     0.054399221709186
     0.140916714897275    -0.221541955580468    -0.005745113763704
1 34
    -0.814396003915802    -1.320013002971720     0.114622251859493
    -0.734386481533505    -0.814396003915802    -0.112612768591572
    -0.112612768591572     0.114622251859493    -1.303910333035321
1 35
     0.018041493392509     0.010863822760816    -0.045506804090323
     0.016954825321976     0.018041493392510    -0.077216140008357
    -0.077216140008355    -0.045506804090324     0.204385284496665
1 36
     0.241075267710516    -0.365428386909634    -0.514688575737961
     0.506849772800246     0.241075267710516     0.365886097755877
     0.365886097755876    -0.514688575737961    -0.821155667608410
1 37
    -1.964302978720107    -2.536842832281641     0.815829902086213
    -2.126435861351960    -1.964302978720107     0.201844934365824
    -0.201844934365824    -0.815829902086213     2.176105199078291
1 38
    -0.011586805906600     0.018805492375304    -0.171722525083063
    -0.075883339406668    -0.021216898560642    -0.013685449460295
     0.061709804075035    -0.089829053064020    -0.090329737531294
1 39
    -0.021216898560642     0.018805492375304     0.089829053064020
    -0.075883339406668    -0.011586805906600    -0.061709804075035
     0.013685449460294     0.171722525083063    -0.090329737531294
1 40
     0.134243928899507    -0.316367784200885     0.360667351639240
    -0.057925066302080    -0.239852387410080     0.322913942244714
    -0.026612498470085     0.483330343569416    -0.608713488323180
1 41
    -0.013203176765229     0.017581137153683     0.005154535220907
    -0.001559903003399     0.002659157231569    -0.136873459229854
    -0.100552857451143    -0.093129414006815    -0.302373385052694
1 42
    -4.281891328446440    -3.810693680370524    -2.523064817594071
    -5.435310735895450   -13.528140006501310    -2.791337651634238
    -0.189501505103937    -3.757698759717147    -7.992387696863649
1 43
     0.312128388944868     0.638109487413429    -0.135759607683826
    -0.141066118833164     0.343805136452219     1.953652304582360
     1.439538574068911     1.653322433402043    -2.599575620838938
1 44
     0.006908693678362     0.002403689900524    -0.000936069817007
    -0.005659825064034     0.003519279727184    -0.009315347924969
     0.006293489200698     0.007141794686467     0.083584194366789
1 45
     0.079406536344133     0.405666352990282    -0.150967931210139
    -0.373610581950021     0.576383781854422    -2.187037348891935
    -1.477186035854130    -1.285510596073019    -2.599561883830963
1 46
    -4.672338773453763    -0.000000000000000     2.149674801534758
    -0.000000000000000    -8.346963924733576    -0.000000000000000
    -2.149674801534758     0.000000000000000   -26.111915765951387
1 47
    -0.019728466400055    -0.000000000000000    -0.071353425970942
    -0.000000000000000    -0.032906400990791     0.000000000000000
     0.071353425970943    -0.000000000000000     0.241453701009045
1 48
    -0.616719914328803    -0.000000000000000     0.158317461914414
    -0.000000000000000    -1.203572797427126    -0.000000000000000
    -0.158317461914414     0.000000000000000    -2.612950804333200
4 1
     0.134243928899507     0.057925066302080    -0.026612498470085
     0.316367784200885    -0.239852387410080    -0.483330343569416
     0.360667351639240    -0.322913942244714    -0.608713488323179
4 2
    -4.281891328446440     5.435310735895450    -0.189501505103937
     3.810693680370524   -13.528140006501310     3.757698759717147
    -2.523064817594071     2.791337651634238    -7.992387696863648
4 3
    -0.013203176765229     0.001559903003399    -0.100552857451143
    -0.017581137153683     0.002659157231569     0.093129414006815
     0.005154535220907     0.136873459229854    -0.302373385052693
4 4
    28.712255763897875   -11.604357955298649    -1.585558456620237
   -11.604357955298649    28.712255763897875    -1.585558456620236
    -1.585558456620237    -1.585558456620236    55.212078307281274
4 5
     0.048671566844824    -0.000226576560905    -0.033722242255877
    -0.000226576560905     0.048671566844825    -0.033722242255877
     0.269479458011099     0.269479458011100     0.635288428506838
4 6
     0.048671566844824    -0.000226576560905     0.269479458011099
    -0.000226576560905     0.048671566844825     0.269479458011100
    -0.033722242255877    -0.033722242255877     0.635288428506838
4 7
    -6.509040373658967     1.836835405819134    -1.519987672362930
     1.836835405819134    -6.509040373658967    -1.519987672362930
     1.519987672362931     1.519987672362931   -26.112156297554240
4 8
    -0.909845353979621     0.293263479536576    -0.111900472385711
     0.293263479536575    -0.909845353979621    -0.111900472385712
     0.111900472385711     0.111900472385711    -2.613162930597527
4 9
    -0.026311864000387     0.006309340701646     0.050306635660743
     0.006309340701646    -0.026311864000387     0.050306635660743
    -0.050306635660743    -0.050306635660743     0.241574615697400
4 10
     0.576383781854421    -0.405666352990282    -1.285510596073020
     0.373610581950021     0.079406536344133     1.477186035854130
    -2.187037348891935     0.150967931210139    -2.599561883830961
4 11
     0.343805136452218    -0.638109487413430     1.653322433402043
     0.141066118833164     0.312128388944868    -1.439538574068911
     1.953652304582360     0.135759607683826    -2.599575620838936
4 12
     0.003519279727183    -0.002403689900524     0.007141794686466
     0.005659825064034     0.006908693678362    -0.006293489200698
    -0.009315347924970     0.000936069817007     0.083584194366791
4 13
    -0.239852387410081     0.316367784200885    -0.483330343569416
     0.057925066302080     0.134243928899507    -0.026612498470086
    -0.322913942244714     0.360667351639240    -0.608713488323178
4 14
   -13.528140006501310     3.810693680370524     3.757698759717148
     5.435310735895450    -4.281891328446440    -0.189501505103937
     2.791337651634238    -2.523064817594071    -7.992387696863646
4 15
     0.002659157231569    -0.017581137153683     0.093129414006815
     0.001559903003400    -0.013203176765229    -0.100552857451142
     0.136873459229854     0.005154535220907    -0.302373385052692
4 16
    -4.295918275525573     0.205368017457661    -0.719722023202365
    -0.205368017457661     0.367193578993648    -0.434200199865728
     0.719722023202365    -0.434200199865728     2.176338730517932
4 17
    -0.045188489377359    -0.051911090566381    -0.019577537909728
     0.042396715048856     0.012142918196291    -0.107276881351507
    -0.131340134994419     0.111870663902178    -0.089973523259938
4 18
    -0.045188489377359    -0.042396715048856     0.131340134994419
     0.051911090566381     0.012142918196291     0.111870663902178
     0.019577537909728    -0.107276881351507    -0.089973523259938
4 19
    -1.841671935564115     0.293178424151850    -0.001675307713202
    -0.293178424151850     0.212962443367828    -0.160560329824631
    -0.001675307713202     0.160560329824631    -1.304168120819919
4 20
     0.311762620750811     0.436213314213094     0.105193878782056
    -0.436213314213095     0.170377530853720     0.622787321204461
     0.105193878782056    -0.622787321204461    -0.820923626284889
4 21
     0.032042341975388     0.002992468505911     0.086676089528495
    -0.002992468505912     0.004066547941972    -0.022254805207226
     0.086676089528496     0.022254805207226     0.204414277126238
4 22
     0.229242810759737     0.373395529200758     0.140916714897275
     0.178824175925616     0.156700557873072    -0.221541955580468
    -0.349786414322195     0.054399221709186    -0.005745113763702
4 23
     0.469015051483651     0.133519399395629     0.208917344396787
    -0.061016204989906    -0.083054058854043     0.285912222715562
     0.056834805914323    -0.256344042823552    -0.006014585973582
4 24
     0.003679788582221     0.000282277650236     0.004290836243808
     0.000496884671755     0.002781832061480     0.001476606927591
    -0.004206494400010    -0.002066807325445     0.012785671860491
4 25
    -0.165600458165362    -0.248688749660927    -0.439543035009110
     0.023981661314157     0.059296073971566    -0.019589863951258
    -0.324124190464079    -0.296872082952011    -0.631924180716361
4 26
     0.239196419190423     0.178533437980760    -0.244360189999195
     0.053279918945204     0.007552166221473     0.317887020900381
     0.051901629162049    -0.397839601092206     0.199342962359459
4 27
     0.032437056126211     0.053198348328588    -0.086816356851038
    -0.001802360378414    -0.018953972639575     0.020962816051034
    -0.046838175684067    -0.076341132471637     0.138937640649181
4 28
    -0.395780414557337    -0.151750066279227    -0.476114135963126
    -0.151750066279227    -0.395780414557337    -0.476114135963126
     0.476114135963126     0.476114135963126     0.839310854492068
4 29
    -0.027711058508471     0.068184483834748    -0.107408429482788
     0.068184483834748    -0.027711058508471    -0.107408429482788
    -0.071133032049622    -0.071133032049621     0.151176540232553
4 30
    -0.027711058508471     0.068184483834748     0.071133032049621
     0.068184483834748    -0.027711058508471     0.071133032049621
     0.107408429482788     0.107408429482788     0.151176540232553
4 31
     0.054543577027757     0.032015271922131    -0.103954723065981
     0.032015271922131     0.054543577027757    -0.103954723065981
    -0.103954723065981    -0.103954723065981     0.150889262142882
4 32
    -0.190728699557959    -0.317367517628990     0.516951950639138
    -0.317367517628990    -0.190728699557959     0.516951950639138
     0.516951950639138     0.516951950639138    -0.854995643901349
4 33
     0.000001367104330     0.006698880134597     0.012523317968064
     0.006698880134597     0.000001367104330     0.012523317968064
     0.012523317968064     0.012523317968064     0.035394439176015
4 34
     0.156700557873072     0.178824175925616    -0.221541955580468
     0.373395529200758     0.229242810759738     0.140916714897275
     0.054399221709186    -0.349786414322195    -0.005745113763702
4 35
    -0.083054058854042    -0.061016204989906     0.285912222715562
     0.133519399395629     0.469015051483651     0.208917344396787
    -0.256344042823552     0.056834805914323    -0.006014585973581
4 36
     0.002781832061480     0.000496884671755     0.001476606927592
     0.000282277650236     0.003679788582221     0.004290836243808
    -0.002066807325445    -0.004206494400010     0.012785671860492
4 37
     0.059296073971567     0.023981661314157    -0.019589863951258
    -0.248688749660926    -0.165600458165361    -0.439543035009110
    -0.296872082952011    -0.324124190464079    -0.631924180716361
4 38
     0.007552166221473     0.053279918945204     0.317887020900381
     0.178533437980760     0.239196419190423    -0.244360189999195
    -0.397839601092206     0.051901629162049     0.199342962359459
4 39
    -0.018953972639575    -0.001802360378414     0.020962816051034
     0.053198348328588     0.032437056126211    -0.086816356851038
    -0.076341132471637    -0.046838175684067     0.138937640649181
4 40
     0.367193578993648    -0.205368017457661    -0.434200199865728
     0.205368017457662    -4.295918275525572    -0.719722023202365
    -0.434200199865728     0.719722023202365     2.176338730517931
4 41
     0.012142918196291     0.042396715048856    -0.107276881351507
    -0.051911090566381    -0.045188489377359    -0.019577537909728
     0.111870663902178    -0.131340134994419    -0.089973523259938
4 42
     0.012142918196291     0.051911090566381     0.111870663902178
    -0.042396715048856    -0.045188489377359     0.131340134994419
    -0.107276881351507     0.019577537909728    -0.089973523259938
4 43
     0.212962443367828    -0.293178424151850    -0.160560329824631
     0.293178424151850    -1.841671935564115    -0.001675307713202
     0.160560329824631    -0.001675307713202    -1.304168120819919
4 44
     0.170377530853720    -0.436213314213094     0.622787321204461
     0.436213314213095     0.311762620750811     0.105193878782056
    -0.622787321204461     0.105193878782056    -0.820923626284889
4 45
     0.004066547941972    -0.002992468505911    -0.022254805207226
     0.002992468505911     0.032042341975388     0.086676089528495
     0.022254805207226     0.086676089528496     0.204414277126238
4 46
     0.079406536344133     0.373610581950021     1.477186035854130
    -0.405666352990282     0.576383781854422    -1.285510596073020
     0.150967931210139    -2.187037348891935    -2.599561883830962
4 47
     0.312128388944868     0.141066118833164    -1.439538574068911
    -0.638109487413430     0.343805136452218     1.653322433402043
     0.135759607683826     1.953652304582360    -2.599575620838938
4 48
     0.006908693678362     0.005659825064034    -0.006293489200698
    -0.002403689900524     0.003519279727183     0.007141794686466
     0.000936069817007    -0.009315347924969     0.083584194366790
7 1
     0.312128388944868     0.141066118833164     1.439538574068911
    -0.638109487413430     0.343805136452219    -1.653322433402043
    -0.135759607683826    -1.953652304582360    -2.599575620838938
7 2
     0.079406536344133     0.373610581950021    -1.477186035854130
    -0.405666352990282     0.576383781854422     1.285510596073019
    -0.150967931210139     2.187037348891935    -2.599561883830963
7 3
     0.006908693678362     0.005659825064034     0.006293489200698
    -0.002403689900524     0.003519279727184    -0.007141794686466
    -0.000936069817007     0.009315347924969     0.083584194366789
7 4
    -6.509040373658967     1.836835405819134     1.519987672362931
     1.836835405819134    -6.509040373658967     1.519987672362931
    -1.519987672362930    -1.519987672362930   -26.112156297554240
7 5
    -0.026311864000387     0.006309340701646    -0.050306635660743
     0.006309340701646    -0.026311864000387    -0.050306635660743
     0.050306635660743     0.050306635660743     0.241574615697400
7 6
    -0.909845353979620     0.293263479536575     0.111900472385711
     0.293263479536575    -0.909845353979620     0.111900472385711
    -0.111900472385711    -0.111900472385712    -2.613162930597527
7 7
    28.712255763897875   -11.604357955298646     1.585558456620235
   -11.604357955298646    28.712255763897875     1.585558456620236
     1.585558456620235     1.585558456620236    55.212078307281281
7 8
     0.048671566844825    -0.000226576560905    -0.269479458011099
    -0.000226576560905     0.048671566844824    -0.269479458011100
     0.033722242255877     0.033722242255877     0.635288428506837
7 9
     0.048671566844825    -0.000226576560905     0.033722242255877
    -0.000226576560905     0.048671566844824     0.033722242255877
    -0.269479458011100    -0.269479458011100     0.635288428506837
7 10
   -13.528140006501312     3.810693680370524    -3.757698759717148
     5.435310735895450    -4.281891328446441     0.189501505103937
    -2.791337651634238     2.523064817594071    -7.992387696863648
7 11
    -0.239852387410081     0.316367784200885     0.483330343569416
     0.057925066302080     0.134243928899507     0.026612498470086
     0.322913942244714    -0.360667351639240    -0.608713488323178
7 12
     0.002659157231569    -0.017581137153683    -0.093129414006815
     0.001559903003400    -0.013203176765228     0.100552857451142
    -0.136873459229854    -0.005154535220907    -0.302373385052692
7 13
     0.343805136452219    -0.638109487413430    -1.653322433402043
     0.141066118833164     0.312128388944868     1.439538574068911
    -1.953652304582360    -0.135759607683826    -2.599575620838936
7 14
     0.576383781854422    -0.405666352990282     1.285510596073019
     0.373610581950021     0.079406536344133    -1.477186035854129
     2.187037348891935    -0.150967931210139    -2.599561883830961
7 15
     0.003519279727183    -0.002403689900524    -0.007141794686466
     0.005659825064034     0.006908693678362     0.006293489200698
     0.009315347924969    -0.000936069817007     0.083584194366791
7 16
    -1.841671935564115     0.293178424151850     0.001675307713202
    -0.293178424151850     0.212962443367828     0.160560329824631
     0.001675307713202    -0.160560329824631    -1.304168120819919
7 17
     0.032042341975388     0.002992468505912    -0.086676089528496
    -0.002992468505911     0.004066547941972     0.022254805207226
    -0.086676089528496    -0.022254805207226     0.204414277126238
7 18
     0.311762620750811     0.436213314213095    -0.105193878782056
    -0.436213314213095     0.170377530853720    -0.622787321204461
    -0.105193878782056     0.622787321204461    -0.820923626284890
7 19
    -4.295918275525572     0.205368017457661     0.719722023202365
    -0.205368017457662     0.367193578993648     0.434200199865728
    -0.719722023202365     0.434200199865728     2.176338730517931
7 20
    -0.045188489377359    -0.042396715048856    -0.131340134994419
     0.051911090566381     0.012142918196291    -0.111870663902178
    -0.019577537909728     0.107276881351508    -0.089973523259938
7 21
    -0.045188489377359    -0.051911090566382     0.019577537909728
     0.042396715048856     0.012142918196291     0.107276881351508
     0.131340134994419    -0.111870663902178    -0.089973523259938
7 22
     0.239196419190423     0.178533437980760     0.244360189999195
     0.053279918945204     0.007552166221473    -0.317887020900381
    -0.051901629162049     0.397839601092206     0.199342962359458
7 23
    -0.165600458165362    -0.248688749660926     0.439543035009110
     0.023981661314157     0.059296073971566     0.019589863951258
     0.324124190464079     0.296872082952011    -0.631924180716362
7 24
     0.032437056126212     0.053198348328588     0.086816356851038
    -0.001802360378414    -0.018953972639574    -0.020962816051034
     0.046838175684067     0.076341132471637     0.138937640649181
7 25
     0.469015051483651     0.133519399395629    -0.208917344396787
    -0.061016204989906    -0.083054058854042    -0.285912222715562
    -0.056834805914323     0.256344042823552    -0.006014585973582
7 26
     0.229242810759737     0.373395529200758    -0.140916714897275
     0.178824175925616     0.156700557873072     0.221541955580468
     0.349786414322195    -0.054399221709186    -0.005745113763703
7 27
     0.003679788582221     0.000282277650236    -0.004290836243808
     0.000496884671755     0.002781832061480    -0.001476606927591
     0.004206494400010     0.002066807325445     0.012785671860491
7 28
     0.054543577027757     0.032015271922131     0.103954723065981
     0.032015271922131     0.054543577027757     0.103954723065981
     0.103954723065981     0.103954723065981     0.150889262142881
7 29
     0.000001367104330     0.006698880134597    -0.012523317968064
     0.006698880134597     0.000001367104330    -0.012523317968064
    -0.012523317968064    -0.012523317968064     0.035394439176014
7 30
    -0.190728699557959    -0.317367517628990    -0.516951950639138
    -0.317367517628990    -0.190728699557959    -0.516951950639138
    -0.516951950639138    -0.516951950639138    -0.854995643901349
7 31
    -0.395780414557337    -0.151750066279227     0.476114135963126
    -0.151750066279227    -0.395780414557337     0.476114135963126
    -0.476114135963126    -0.476114135963126     0.839310854492067
7 32
    -0.027711058508471     0.068184483834748    -0.071133032049621
     0.068184483834748    -0.027711058508471    -0.071133032049621
    -0.107408429482788    -0.107408429482788     0.151176540232553
7 33
    -0.027711058508471     0.068184483834748     0.107408429482788
     0.068184483834748    -0.027711058508471     0.107408429482788
     0.071133032049621     0.071133032049621     0.151176540232553
7 34
     0.007552166221473     0.053279918945204    -0.317887020900381
     0.178533437980760     0.239196419190423     0.244360189999195
     0.397839601092206    -0.051901629162049     0.199342962359459
7 35
     0.059296073971566     0.023981661314157     0.019589863951258
    -0.248688749660926    -0.165600458165362     0.439543035009110
     0.296872082952011     0.324124190464079    -0.631924180716361
7 36
    -0.018953972639574    -0.001802360378414    -0.020962816051034
     0.053198348328588     0.032437056126212     0.086816356851038
     0.076341132471637     0.046838175684066     0.138937640649181
7 37
    -0.083054058854042    -0.061016204989906    -0.285912222715562
     0.133519399395629     0.469015051483651    -0.208917344396787
     0.256344042823552    -0.056834805914324    -0.006014585973582
7 38
     0.156700557873072     0.178824175925616     0.221541955580468
     0.373395529200758     0.229242810759737    -0.140916714897275
    -0.054399221709186     0.349786414322195    -0.005745113763703
7 39
     0.002781832061480     0.000496884671755    -0.001476606927591
     0.000282277650236     0.003679788582221    -0.004290836243808
     0.002066807325445     0.004206494400010     0.012785671860491
7 40
     0.212962443367828    -0.293178424151850     0.160560329824631
     0.293178424151850    -1.841671935564115     0.001675307713202
    -0.160560329824631     0.001675307713202    -1.304168120819919
7 41
     0.004066547941972    -0.002992468505911     0.022254805207226
     0.002992468505912     0.032042341975388    -0.086676089528495
    -0.022254805207226    -0.086676089528496     0.204414277126238
7 42
     0.170377530853720    -0.436213314213095    -0.622787321204461
     0.436213314213094     0.311762620750811    -0.105193878782056
     0.622787321204461    -0.105193878782056    -0.820923626284890
7 43
     0.367193578993648    -0.205368017457661     0.434200199865728
     0.205368017457661    -4.295918275525573     0.719722023202365
     0.434200199865728    -0.719722023202365     2.176338730517931
7 44
     0.012142918196291     0.051911090566382    -0.111870663902178
    -0.042396715048856    -0.045188489377359    -0.131340134994419
     0.107276881351508    -0.019577537909728    -0.089973523259938
7 45
     0.012142918196291     0.042396715048856     0.107276881351507
    -0.051911090566382    -0.045188489377359     0.019577537909728
    -0.111870663902178     0.131340134994419    -0.089973523259938
7 46
    -4.281891328446440     5.435310735895450     0.189501505103938
     3.810693680370523   -13.528140006501312    -3.757698759717148
     2.523064817594071    -2.791337651634238    -7.992387696863648
7 47
     0.134243928899507     0.057925066302080     0.026612498470085
     0.316367784200885    -0.239852387410081     0.483330343569416
    -0.360667351639240     0.322913942244714    -0.608713488323179
7 48
    -0.013203176765229     0.001559903003400     0.100552857451143
    -0.017581137153683     0.002659157231569    -0.093129414006815
    -0.005154535220907    -0.136873459229854    -0.302373385052693
10 1
    -0.814396003915802     0.734386481533505    -0.112612768591572
     1.320013002971720    -0.814396003915802    -0.114622251859493
     0.114622251859493     0.112612768591572    -1.303910333035321
10 2
     0.241075267710515    -0.506849772800246     0.365886097755876
     0.365428386909634     0.241075267710516     0.514688575737961