phonopy:
  version: "2.37.0"
  frequency_unit_conversion_factor: 15.633302
  symmetry_tolerance: 1.00000e-05

space_group:
  type: "P4/m"
  number: 83
  Hall_symbol: "-P 4"

supercell_matrix:
- [   1,   0,   0 ]
- [   0,   1,   0 ]
- [   0,   0,   3 ]

primitive_cell:
  lattice:
  - [    51.299016072340784,    -0.000000000960552,     0.000000000000000 ] # a
  - [     0.000000000960552,    51.299016072340791,     0.000000000000000 ] # b
  - [     0.000000000000000,     0.000000000000000,     3.129026389355789 ] # c
  points:
  - symbol: Mo # 1
    coordinates: [  0.367112322103437,  0.658306521215748,  0.000000000000000 ]
    mass: 95.960000
  - symbol: Mo # 2
    coordinates: [  0.294094950414346,  0.517973525971146,  0.500000000000000 ]
    mass: 95.960000
  - symbol: Mo # 3
    coordinates: [  0.312693786088049,  0.412613071432786,  0.500000000000000 ]
    mass: 95.960000
  - symbol: Mo # 4
    coordinates: [  0.482026474028854,  0.294094950414346,  0.500000000000000 ]
    mass: 95.960000
  - symbol: Mo # 5
    coordinates: [  0.330667441033047,  0.618518460233176,  0.500000000000000 ]
    mass: 95.960000
  - symbol: Mo # 6
    coordinates: [  0.705905049585654,  0.482026474028855,  0.500000000000000 ]
    mass: 95.960000
  - symbol: Mo # 7
    coordinates: [  0.703541225584670,  0.535930969552678,  0.000000000000000 ]
    mass: 95.960000
  - symbol: Mo # 8
    coordinates: [  0.694237418192163,  0.429346711455039,  0.000000000000000 ]
    mass: 95.960000
  - symbol: Mo # 9
    coordinates: [  0.341693478784252,  0.367112322103437,  0.000000000000000 ]
    mass: 95.960000
  - symbol: Mo # 10
    coordinates: [  0.687306213911951,  0.587386928567214,  0.500000000000000 ]
    mass: 95.960000
  - symbol: Mo # 11
    coordinates: [  0.669332558966953,  0.381481539766824,  0.500000000000000 ]
    mass: 95.960000
  - symbol: Mo # 12
    coordinates: [  0.296458774415331,  0.464069030447322,  0.000000000000000 ]
    mass: 95.960000
  - symbol: Mo # 13
    coordinates: [  0.658306521215748,  0.632887677896563,  0.000000000000000 ]
    mass: 95.960000
  - symbol: Mo # 14
    coordinates: [  0.381481539766824,  0.330667441033047,  0.500000000000000 ]
    mass: 95.960000
  - symbol: Mo # 15
    coordinates: [  0.632887677896563,  0.341693478784252,  0.000000000000000 ]
    mass: 95.960000
  - symbol: Mo # 16
    coordinates: [  0.305762581807837,  0.570653288544961,  0.000000000000000 ]
    mass: 95.960000
  - symbol: Mo # 17
    coordinates: [  0.570653288544961,  0.694237418192164,  0.000000000000000 ]
    mass: 95.960000
  - symbol: Mo # 18
    coordinates: [  0.517973525971146,  0.705905049585654,  0.500000000000000 ]
    mass: 95.960000
  - symbol: Mo # 19
    coordinates: [  0.412613071432786,  0.687306213911951,  0.500000000000000 ]
    mass: 95.960000
  - symbol: Mo # 20
    coordinates: [  0.587386928567214,  0.312693786088049,  0.500000000000000 ]
    mass: 95.960000
  - symbol: Mo # 21
    coordinates: [  0.535930969552678,  0.296458774415331,  0.000000000000000 ]
    mass: 95.960000
  - symbol: Mo # 22
    coordinates: [  0.429346711455039,  0.305762581807837,  0.000000000000000 ]
    mass: 95.960000
  - symbol: Mo # 23
    coordinates: [  0.618518460233176,  0.669332558966953,  0.500000000000000 ]
    mass: 95.960000
  - symbol: Mo # 24
    coordinates: [  0.464069030447322,  0.703541225584670,  0.000000000000000 ]
    mass: 95.960000
  - symbol: S # 25
    coordinates: [  0.480285385464758,  0.735354404252780,  0.500000000000000 ]
    mass: 32.065000
  - symbol: S # 26
    coordinates: [  0.319638912422788,  0.652480411951612,  0.000000000000000 ]
    mass: 32.065000
  - symbol: S # 27
    coordinates: [  0.324749240863168,  0.483794713202397,  0.500000000000000 ]
    mass: 32.065000
  - symbol: S # 28
    coordinates: [  0.326526732872309,  0.529705275241663,  0.000000000000000 ]
    mass: 32.065000
  - symbol: S # 29
    coordinates: [  0.470294724758337,  0.326526732872309,  0.000000000000000 ]
    mass: 32.065000
  - symbol: S # 30
    coordinates: [  0.334914780832035,  0.438988791634369,  0.000000000000000 ]
    mass: 32.065000
  - symbol: S # 31
    coordinates: [  0.340125595863402,  0.573591596839695,  0.500000000000000 ]
    mass: 32.065000
  - symbol: S # 32
    coordinates: [  0.399396464276708,  0.286319557769562,  0.500000000000000 ]
    mass: 32.065000
  - symbol: S # 33
    coordinates: [  0.438988791634369,  0.665085219167965,  0.000000000000000 ]
    mass: 32.065000
  - symbol: S # 34
    coordinates: [  0.347519588048388,  0.319638912422788,  0.000000000000000 ]
    mass: 32.065000
  - symbol: S # 35
    coordinates: [  0.356330668659144,  0.398340524013451,  0.500000000000000 ]
    mass: 32.065000
  - symbol: S # 36
    coordinates: [  0.364620019661958,  0.612462573917483,  0.000000000000000 ]
    mass: 32.065000
  - symbol: S # 37
    coordinates: [  0.365249353603664,  0.693965676642929,  0.500000000000000 ]
    mass: 32.065000
  - symbol: S # 38
    coordinates: [  0.426408403160305,  0.340125595863402,  0.500000000000000 ]
    mass: 32.065000
  - symbol: S # 39
    coordinates: [  0.420042858844114,  0.722232514198007,  0.000000000000000 ]
    mass: 32.065000
  - symbol: S # 40
    coordinates: [  0.387537426082517,  0.364620019661958,  0.000000000000000 ]
    mass: 32.065000
  - symbol: S # 41
    coordinates: [  0.398340524013451,  0.643669331340856,  0.500000000000000 ]
    mass: 32.065000
  - symbol: S # 42
    coordinates: [  0.458129299735464,  0.267562635425534,  0.000000000000000 ]
    mass: 32.065000
  - symbol: S # 43
    coordinates: [  0.516205286797603,  0.324749240863168,  0.500000000000000 ]
    mass: 32.065000
  - symbol: S # 44
    coordinates: [  0.735354404252780,  0.519714614535242,  0.500000000000000 ]
    mass: 32.065000
  - symbol: S # 45
    coordinates: [  0.286319557769562,  0.600603535723292,  0.500000000000000 ]
    mass: 32.065000
  - symbol: S # 46
    coordinates: [  0.519714614535242,  0.264645595747220,  0.500000000000000 ]
    mass: 32.065000
  - symbol: S # 47
    coordinates: [  0.529705275241663,  0.673473267127691,  0.000000000000000 ]
    mass: 32.065000
  - symbol: S # 48
    coordinates: [  0.541870700264536,  0.732437364574466,  0.000000000000000 ]
    mass: 32.065000
  - symbol: S # 49
    coordinates: [  0.561011208365631,  0.334914780832035,  0.000000000000000 ]
    mass: 32.065000
  - symbol: S # 50
    coordinates: [  0.573591596839695,  0.659874404136598,  0.500000000000000 ]
    mass: 32.065000
  - symbol: S # 51
    coordinates: [  0.579957141155886,  0.277767485801993,  0.000000000000000 ]
    mass: 32.065000
  - symbol: S # 52
    coordinates: [  0.600603535723292,  0.713680442230438,  0.500000000000000 ]
    mass: 32.065000
  - symbol: S # 53
    coordinates: [  0.601659475986549,  0.356330668659144,  0.500000000000000 ]
    mass: 32.065000
  - symbol: S # 54
    coordinates: [  0.612462573917483,  0.635379980338042,  0.000000000000000 ]
    mass: 32.065000
  - symbol: S # 55
    coordinates: [  0.634750646396336,  0.306034323357072,  0.500000000000000 ]
    mass: 32.065000
  - symbol: S # 56
    coordinates: [  0.635379980338043,  0.387537426082517,  0.000000000000000 ]
    mass: 32.065000
  - symbol: S # 57
    coordinates: [  0.643669331340856,  0.601659475986549,  0.500000000000000 ]
    mass: 32.065000
  - symbol: S # 58
    coordinates: [  0.652480411951612,  0.680361087577212,  0.000000000000000 ]
    mass: 32.065000
  - symbol: S # 59
    coordinates: [  0.659874404136598,  0.426408403160305,  0.500000000000000 ]
    mass: 32.065000
  - symbol: S # 60
    coordinates: [  0.665085219167965,  0.561011208365631,  0.000000000000000 ]
    mass: 32.065000
  - symbol: S # 61
    coordinates: [  0.673473267127691,  0.470294724758337,  0.000000000000000 ]
    mass: 32.065000
  - symbol: S # 62
    coordinates: [  0.675250759136832,  0.516205286797603,  0.500000000000000 ]
    mass: 32.065000
  - symbol: S # 63
    coordinates: [  0.680361087577212,  0.347519588048388,  0.000000000000000 ]
    mass: 32.065000
  - symbol: S # 64
    coordinates: [  0.693965676642928,  0.634750646396336,  0.500000000000000 ]
    mass: 32.065000
  - symbol: S # 65
    coordinates: [  0.713680442230438,  0.399396464276709,  0.500000000000000 ]
    mass: 32.065000
  - symbol: S # 66
    coordinates: [  0.722232514198007,  0.579957141155886,  0.000000000000000 ]
    mass: 32.065000
  - symbol: S # 67
    coordinates: [  0.732437364574466,  0.458129299735464,  0.000000000000000 ]
    mass: 32.065000
  - symbol: S # 68
    coordinates: [  0.264645595747220,  0.480285385464759,  0.500000000000000 ]
    mass: 32.065000
  - symbol: S # 69
    coordinates: [  0.267562635425534,  0.541870700264536,  0.000000000000000 ]
    mass: 32.065000
  - symbol: S # 70
    coordinates: [  0.277767485801993,  0.420042858844115,  0.000000000000000 ]
    mass: 32.065000
  - symbol: S # 71
    coordinates: [  0.306034323357072,  0.365249353603664,  0.500000000000000 ]
    mass: 32.065000
  - symbol: S # 72
    coordinates: [  0.483794713202397,  0.675250759136832,  0.500000000000000 ]
    mass: 32.065000
  reciprocal_lattice: # without 2pi
  - [     0.019493551271818,    -0.000000000000365,     0.000000000000000 ] # a*
  - [     0.000000000000365,     0.019493551271818,     0.000000000000000 ] # b*
  - [     0.000000000000000,     0.000000000000000,     0.319588228275020 ] # c*

unit_cell:
  lattice:
  - [    51.299016072340784,    -0.000000000960552,     0.000000000000000 ] # a
  - [     0.000000000960552,    51.299016072340791,     0.000000000000000 ] # b
  - [     0.000000000000000,     0.000000000000000,     3.129026389355789 ] # c
  points:
  - symbol: Mo # 1
    coordinates: [  0.367112322103437,  0.658306521215748,  0.000000000000000 ]
    mass: 95.960000
    reduced_to: 1
  - symbol: Mo # 2
    coordinates: [  0.294094950414346,  0.517973525971146,  0.500000000000000 ]
    mass: 95.960000
    reduced_to: 2
  - symbol: Mo # 3
    coordinates: [  0.312693786088049,  0.412613071432786,  0.500000000000000 ]
    mass: 95.960000
    reduced_to: 3
  - symbol: Mo # 4
    coordinates: [  0.482026474028854,  0.294094950414346,  0.500000000000000 ]
    mass: 95.960000
    reduced_to: 4
  - symbol: Mo # 5
    coordinates: [  0.330667441033047,  0.618518460233176,  0.500000000000000 ]
    mass: 95.960000
    reduced_to: 5
  - symbol: Mo # 6
    coordinates: [  0.705905049585654,  0.482026474028855,  0.500000000000000 ]
    mass: 95.960000
    reduced_to: 6
  - symbol: Mo # 7
    coordinates: [  0.703541225584670,  0.535930969552678,  0.000000000000000 ]
    mass: 95.960000
    reduced_to: 7
  - symbol: Mo # 8
    coordinates: [  0.694237418192163,  0.429346711455039,  0.000000000000000 ]
    mass: 95.960000
    reduced_to: 8
  - symbol: Mo # 9
    coordinates: [  0.341693478784252,  0.367112322103437,  0.000000000000000 ]
    mass: 95.960000
    reduced_to: 9
  - symbol: Mo # 10
    coordinates: [  0.687306213911951,  0.587386928567214,  0.500000000000000 ]
    mass: 95.960000
    reduced_to: 10
  - symbol: Mo # 11
    coordinates: [  0.669332558966953,  0.381481539766824,  0.500000000000000 ]
    mass: 95.960000
    reduced_to: 11
  - symbol: Mo # 12
    coordinates: [  0.296458774415331,  0.464069030447322,  0.000000000000000 ]
    mass: 95.960000
    reduced_to: 12
  - symbol: Mo # 13
    coordinates: [  0.658306521215748,  0.632887677896563,  0.000000000000000 ]
    mass: 95.960000
    reduced_to: 13
  - symbol: Mo # 14
    coordinates: [  0.381481539766824,  0.330667441033047,  0.500000000000000 ]
    mass: 95.960000
    reduced_to: 14
  - symbol: Mo # 15
    coordinates: [  0.632887677896563,  0.341693478784252,  0.000000000000000 ]
    mass: 95.960000
    reduced_to: 15
  - symbol: Mo # 16
    coordinates: [  0.305762581807837,  0.570653288544961,  0.000000000000000 ]
    mass: 95.960000
    reduced_to: 16
  - symbol: Mo # 17
    coordinates: [  0.570653288544961,  0.694237418192164,  0.000000000000000 ]
    mass: 95.960000
    reduced_to: 17
  - symbol: Mo # 18
    coordinates: [  0.517973525971146,  0.705905049585654,  0.500000000000000 ]
    mass: 95.960000
    reduced_to: 18
  - symbol: Mo # 19
    coordinates: [  0.412613071432786,  0.687306213911951,  0.500000000000000 ]
    mass: 95.960000
    reduced_to: 19
  - symbol: Mo # 20
    coordinates: [  0.587386928567214,  0.312693786088049,  0.500000000000000 ]
    mass: 95.960000
    reduced_to: 20
  - symbol: Mo # 21
    coordinates: [  0.535930969552678,  0.296458774415331,  0.000000000000000 ]
    mass: 95.960000
    reduced_to: 21
  - symbol: Mo # 22
    coordinates: [  0.429346711455039,  0.305762581807837,  0.000000000000000 ]
    mass: 95.960000
    reduced_to: 22
  - symbol: Mo # 23
    coordinates: [  0.618518460233176,  0.669332558966953,  0.500000000000000 ]
    mass: 95.960000
    reduced_to: 23
  - symbol: Mo # 24
    coordinates: [  0.464069030447322,  0.703541225584670,  0.000000000000000 ]
    mass: 95.960000
    reduced_to: 24
  - symbol: S # 25
    coordinates: [  0.480285385464758,  0.735354404252780,  0.500000000000000 ]
    mass: 32.065000
    reduced_to: 25
  - symbol: S # 26
    coordinates: [  0.319638912422788,  0.652480411951612,  0.000000000000000 ]
    mass: 32.065000
    reduced_to: 26
  - symbol: S # 27
    coordinates: [  0.324749240863168,  0.483794713202397,  0.500000000000000 ]
    mass: 32.065000
    reduced_to: 27
  - symbol: S # 28
    coordinates: [  0.326526732872309,  0.529705275241663,  0.000000000000000 ]
    mass: 32.065000
    reduced_to: 28
  - symbol: S # 29
    coordinates: [  0.470294724758337,  0.326526732872309,  0.000000000000000 ]
    mass: 32.065000
    reduced_to: 29
  - symbol: S # 30
    coordinates: [  0.334914780832035,  0.438988791634369,  0.000000000000000 ]
    mass: 32.065000
    reduced_to: 30
  - symbol: S # 31
    coordinates: [  0.340125595863402,  0.573591596839695,  0.500000000000000 ]
    mass: 32.065000
    reduced_to: 31
  - symbol: S # 32
    coordinates: [  0.399396464276708,  0.286319557769562,  0.500000000000000 ]
    mass: 32.065000
    reduced_to: 32
  - symbol: S # 33
    coordinates: [  0.438988791634369,  0.665085219167965,  0.000000000000000 ]
    mass: 32.065000
    reduced_to: 33
  - symbol: S # 34
    coordinates: [  0.347519588048388,  0.319638912422788,  0.000000000000000 ]
    mass: 32.065000
    reduced_to: 34
  - symbol: S # 35
    coordinates: [  0.356330668659144,  0.398340524013451,  0.500000000000000 ]
    mass: 32.065000
    reduced_to: 35
  - symbol: S # 36
    coordinates: [  0.364620019661958,  0.612462573917483,  0.000000000000000 ]
    mass: 32.065000
    reduced_to: 36
  - symbol: S # 37
    coordinates: [  0.365249353603664,  0.693965676642929,  0.500000000000000 ]
    mass: 32.065000
    reduced_to: 37
  - symbol: S # 38
    coordinates: [  0.426408403160305,  0.340125595863402,  0.500000000000000 ]
    mass: 32.065000
    reduced_to: 38
  - symbol: S # 39
    coordinates: [  0.420042858844114,  0.722232514198007,  0.000000000000000 ]
    mass: 32.065000
    reduced_to: 39
  - symbol: S # 40
    coordinates: [  0.387537426082517,  0.364620019661958,  0.000000000000000 ]
    mass: 32.065000
    reduced_to: 40
  - symbol: S # 41
    coordinates: [  0.398340524013451,  0.643669331340856,  0.500000000000000 ]
    mass: 32.065000
    reduced_to: 41
  - symbol: S # 42
    coordinates: [  0.458129299735464,  0.267562635425534,  0.000000000000000 ]
    mass: 32.065000
    reduced_to: 42
  - symbol: S # 43
    coordinates: [  0.516205286797603,  0.324749240863168,  0.500000000000000 ]
    mass: 32.065000
    reduced_to: 43
  - symbol: S # 44
    coordinates: [  0.735354404252780,  0.519714614535242,  0.500000000000000 ]
    mass: 32.065000
    reduced_to: 44
  - symbol: S # 45
    coordinates: [  0.286319557769562,  0.600603535723292,  0.500000000000000 ]
    mass: 32.065000
    reduced_to: 45
  - symbol: S # 46
    coordinates: [  0.519714614535242,  0.264645595747220,  0.500000000000000 ]
    mass: 32.065000
    reduced_to: 46
  - symbol: S # 47
    coordinates: [  0.529705275241663,  0.673473267127691,  0.000000000000000 ]
    mass: 32.065000
    reduced_to: 47
  - symbol: S # 48
    coordinates: [  0.541870700264536,  0.732437364574466,  0.000000000000000 ]
    mass: 32.065000
    reduced_to: 48
  - symbol: S # 49
    coordinates: [  0.561011208365631,  0.334914780832035,  0.000000000000000 ]
    mass: 32.065000
    reduced_to: 49
  - symbol: S # 50
    coordinates: [  0.573591596839695,  0.659874404136598,  0.500000000000000 ]
    mass: 32.065000
    reduced_to: 50
  - symbol: S # 51
    coordinates: [  0.579957141155886,  0.277767485801993,  0.000000000000000 ]
    mass: 32.065000
    reduced_to: 51
  - symbol: S # 52
    coordinates: [  0.600603535723292,  0.713680442230438,  0.500000000000000 ]
    mass: 32.065000
    reduced_to: 52
  - symbol: S # 53
    coordinates: [  0.601659475986549,  0.356330668659144,  0.500000000000000 ]
    mass: 32.065000
    reduced_to: 53
  - symbol: S # 54
    coordinates: [  0.612462573917483,  0.635379980338042,  0.000000000000000 ]
    mass: 32.065000
    reduced_to: 54
  - symbol: S # 55
    coordinates: [  0.634750646396336,  0.306034323357072,  0.500000000000000 ]
    mass: 32.065000
    reduced_to: 55
  - symbol: S # 56
    coordinates: [  0.635379980338043,  0.387537426082517,  0.000000000000000 ]
    mass: 32.065000
    reduced_to: 56
  - symbol: S # 57
    coordinates: [  0.643669331340856,  0.601659475986549,  0.500000000000000 ]
    mass: 32.065000
    reduced_to: 57
  - symbol: S # 58
    coordinates: [  0.652480411951612,  0.680361087577212,  0.000000000000000 ]
    mass: 32.065000
    reduced_to: 58
  - symbol: S # 59
    coordinates: [  0.659874404136598,  0.426408403160305,  0.500000000000000 ]
    mass: 32.065000
    reduced_to: 59
  - symbol: S # 60
    coordinates: [  0.665085219167965,  0.561011208365631,  0.000000000000000 ]
    mass: 32.065000
    reduced_to: 60
  - symbol: S # 61
    coordinates: [  0.673473267127691,  0.470294724758337,  0.000000000000000 ]
    mass: 32.065000
    reduced_to: 61
  - symbol: S # 62
    coordinates: [  0.675250759136832,  0.516205286797603,  0.500000000000000 ]
    mass: 32.065000
    reduced_to: 62
  - symbol: S # 63
    coordinates: [  0.680361087577212,  0.347519588048388,  0.000000000000000 ]
    mass: 32.065000
    reduced_to: 63
  - symbol: S # 64
    coordinates: [  0.693965676642928,  0.634750646396336,  0.500000000000000 ]
    mass: 32.065000
    reduced_to: 64
  - symbol: S # 65
    coordinates: [  0.713680442230438,  0.399396464276709,  0.500000000000000 ]
    mass: 32.065000
    reduced_to: 65
  - symbol: S # 66
    coordinates: [  0.722232514198007,  0.579957141155886,  0.000000000000000 ]
    mass: 32.065000
    reduced_to: 66
  - symbol: S # 67
    coordinates: [  0.732437364574466,  0.458129299735464,  0.000000000000000 ]
    mass: 32.065000
    reduced_to: 67
  - symbol: S # 68
    coordinates: [  0.264645595747220,  0.480285385464759,  0.500000000000000 ]
    mass: 32.065000
    reduced_to: 68
  - symbol: S # 69
    coordinates: [  0.267562635425534,  0.541870700264536,  0.000000000000000 ]
    mass: 32.065000
    reduced_to: 69
  - symbol: S # 70
    coordinates: [  0.277767485801993,  0.420042858844115,  0.000000000000000 ]
    mass: 32.065000
    reduced_to: 70
  - symbol: S # 71
    coordinates: [  0.306034323357072,  0.365249353603664,  0.500000000000000 ]
    mass: 32.065000
    reduced_to: 71
  - symbol: S # 72
    coordinates: [  0.483794713202397,  0.675250759136832,  0.500000000000000 ]
    mass: 32.065000
    reduced_to: 72

supercell:
  lattice:
  - [    51.299016072340784,    -0.000000000960552,     0.000000000000000 ] # a
  - [     0.000000000960552,    51.299016072340791,     0.000000000000000 ] # b
  - [     0.000000000000000,     0.000000000000000,     9.387079168067368 ] # c
  points:
  - symbol: Mo # 1
    coordinates: [  0.367112322103437,  0.658306521215748,  0.000000000000000 ]
    mass: 95.960000
    reduced_to: 1
  - symbol: Mo # 2
    coordinates: [  0.367112322103437,  0.658306521215748,  0.333333333333333 ]
    mass: 95.960000
    reduced_to: 1
  - symbol: Mo # 3
    coordinates: [  0.367112322103437,  0.658306521215748,  0.666666666666667 ]
    mass: 95.960000
    reduced_to: 1
  - symbol: Mo # 4
    coordinates: [  0.294094950414346,  0.517973525971146,  0.166666666666667 ]
    mass: 95.960000
    reduced_to: 4
  - symbol: Mo # 5
    coordinates: [  0.294094950414346,  0.517973525971146,  0.500000000000000 ]
    mass: 95.960000
    reduced_to: 4
  - symbol: Mo # 6
    coordinates: [  0.294094950414346,  0.517973525971146,  0.833333333333333 ]
    mass: 95.960000
    reduced_to: 4
  - symbol: Mo # 7
    coordinates: [  0.312693786088049,  0.412613071432786,  0.166666666666667 ]
    mass: 95.960000
    reduced_to: 7
  - symbol: Mo # 8
    coordinates: [  0.312693786088049,  0.412613071432786,  0.500000000000000 ]
    mass: 95.960000
    reduced_to: 7
  - symbol: Mo # 9
    coordinates: [  0.312693786088049,  0.412613071432786,  0.833333333333333 ]
    mass: 95.960000
    reduced_to: 7
  - symbol: Mo # 10
    coordinates: [  0.482026474028854,  0.294094950414346,  0.166666666666667 ]
    mass: 95.960000
    reduced_to: 10
  - symbol: Mo # 11
    coordinates: [  0.482026474028854,  0.294094950414346,  0.500000000000000 ]
    mass: 95.960000
    reduced_to: 10
  - symbol: Mo # 12
    coordinates: [  0.482026474028854,  0.294094950414346,  0.833333333333333 ]
    mass: 95.960000
    reduced_to: 10
  - symbol: Mo # 13
    coordinates: [  0.330667441033047,  0.618518460233176,  0.166666666666667 ]
    mass: 95.960000
    reduced_to: 13
  - symbol: Mo # 14
    coordinates: [  0.330667441033047,  0.618518460233176,  0.500000000000000 ]
    mass: 95.960000
    reduced_to: 13
  - symbol: Mo # 15
    coordinates: [  0.330667441033047,  0.618518460233176,  0.833333333333333 ]
    mass: 95.960000
    reduced_to: 13
  - symbol: Mo # 16
    coordinates: [  0.705905049585654,  0.482026474028855,  0.166666666666667 ]
    mass: 95.960000
    reduced_to: 16
  - symbol: Mo # 17
    coordinates: [  0.705905049585654,  0.482026474028855,  0.500000000000000 ]
    mass: 95.960000
    reduced_to: 16
  - symbol: Mo # 18
    coordinates: [  0.705905049585654,  0.482026474028855,  0.833333333333333 ]
    mass: 95.960000
    reduced_to: 16
  - symbol: Mo # 19
    coordinates: [  0.703541225584670,  0.535930969552678,  0.000000000000000 ]
    mass: 95.960000
    reduced_to: 19
  - symbol: Mo # 20
    coordinates: [  0.703541225584670,  0.535930969552678,  0.333333333333333 ]
    mass: 95.960000
    reduced_to: 19
  - symbol: Mo # 21
    coordinates: [  0.703541225584670,  0.535930969552678,  0.666666666666667 ]
    mass: 95.960000
    reduced_to: 19
  - symbol: Mo # 22
    coordinates: [  0.694237418192163,  0.429346711455039,  0.000000000000000 ]
    mass: 95.960000
    reduced_to: 22
  - symbol: Mo # 23
    coordinates: [  0.694237418192163,  0.429346711455039,  0.333333333333333 ]
    mass: 95.960000
    reduced_to: 22
  - symbol: Mo # 24
    coordinates: [  0.694237418192163,  0.429346711455039,  0.666666666666667 ]
    mass: 95.960000
    reduced_to: 22
  - symbol: Mo # 25
    coordinates: [  0.341693478784252,  0.367112322103437,  0.000000000000000 ]
    mass: 95.960000
    reduced_to: 25
  - symbol: Mo # 26
    coordinates: [  0.341693478784252,  0.367112322103437,  0.333333333333333 ]
    mass: 95.960000
    reduced_to: 25
  - symbol: Mo # 27
    coordinates: [  0.341693478784252,  0.367112322103437,  0.666666666666667 ]
    mass: 95.960000
    reduced_to: 25
  - symbol: Mo # 28
    coordinates: [  0.687306213911951,  0.587386928567214,  0.166666666666667 ]
    mass: 95.960000
    reduced_to: 28
  - symbol: Mo # 29
    coordinates: [  0.687306213911951,  0.587386928567214,  0.500000000000000 ]
    mass: 95.960000
    reduced_to: 28
  - symbol: Mo # 30
    coordinates: [  0.687306213911951,  0.587386928567214,  0.833333333333333 ]
    mass: 95.960000
    reduced_to: 28
  - symbol: Mo # 31
    coordinates: [  0.669332558966953,  0.381481539766824,  0.166666666666667 ]
    mass: 95.960000
    reduced_to: 31
  - symbol: Mo # 32
    coordinates: [  0.669332558966953,  0.381481539766824,  0.500000000000000 ]
    mass: 95.960000
    reduced_to: 31
  - symbol: Mo # 33
    coordinates: [  0.669332558966953,  0.381481539766824,  0.833333333333333 ]
    mass: 95.960000
    reduced_to: 31
  - symbol: Mo # 34
    coordinates: [  0.296458774415331,  0.464069030447322,  0.000000000000000 ]
    mass: 95.960000
    reduced_to: 34
  - symbol: Mo # 35
    coordinates: [  0.296458774415331,  0.464069030447322,  0.333333333333333 ]
    mass: 95.960000
    reduced_to: 34
  - symbol: Mo # 36
    coordinates: [  0.296458774415331,  0.464069030447322,  0.666666666666667 ]
    mass: 95.960000
    reduced_to: 34
  - symbol: Mo # 37
    coordinates: [  0.658306521215748,  0.632887677896563,  0.000000000000000 ]
    mass: 95.960000
    reduced_to: 37
  - symbol: Mo # 38
    coordinates: [  0.658306521215748,  0.632887677896563,  0.333333333333333 ]
    mass: 95.960000
    reduced_to: 37
  - symbol: Mo # 39
    coordinates: [  0.658306521215748,  0.632887677896563,  0.666666666666667 ]
    mass: 95.960000
    reduced_to: 37
  - symbol: Mo # 40
    coordinates: [  0.381481539766824,  0.330667441033047,  0.166666666666667 ]
    mass: 95.960000
    reduced_to: 40
  - symbol: Mo # 41
    coordinates: [  0.381481539766824,  0.330667441033047,  0.500000000000000 ]
    mass: 95.960000
    reduced_to: 40
  - symbol: Mo # 42
    coordinates: [  0.381481539766824,  0.330667441033047,  0.833333333333333 ]
    mass: 95.960000
    reduced_to: 40
  - symbol: Mo # 43
    coordinates: [  0.632887677896563,  0.341693478784252,  0.000000000000000 ]
    mass: 95.960000
    reduced_to: 43
  - symbol: Mo # 44
    coordinates: [  0.632887677896563,  0.341693478784252,  0.333333333333333 ]
    mass: 95.960000
    reduced_to: 43
  - symbol: Mo # 45
    coordinates: [  0.632887677896563,  0.341693478784252,  0.666666666666667 ]
    mass: 95.960000
    reduced_to: 43
  - symbol: Mo # 46
    coordinates: [  0.305762581807837,  0.570653288544961,  0.000000000000000 ]
    mass: 95.960000
    reduced_to: 46
  - symbol: Mo # 47
    coordinates: [  0.305762581807837,  0.570653288544961,  0.333333333333333 ]
    mass: 95.960000
    reduced_to: 46
  - symbol: Mo # 48
    coordinates: [  0.305762581807837,  0.570653288544961,  0.666666666666667 ]
    mass: 95.960000
    reduced_to: 46
  - symbol: Mo # 49
    coordinates: [  0.570653288544961,  0.694237418192164,  0.000000000000000 ]
    mass: 95.960000
    reduced_to: 49
  - symbol: Mo # 50
    coordinates: [  0.570653288544961,  0.694237418192164,  0.333333333333333 ]
    mass: 95.960000
    reduced_to: 49
  - symbol: Mo # 51
    coordinates: [  0.570653288544961,  0.694237418192164,  0.666666666666667 ]
    mass: 95.960000
    reduced_to: 49
  - symbol: Mo # 52
    coordinates: [  0.517973525971146,  0.705905049585654,  0.166666666666667 ]
    mass: 95.960000
    reduced_to: 52
  - symbol: Mo # 53
    coordinates: [  0.517973525971146,  0.705905049585654,  0.500000000000000 ]
    mass: 95.960000
    reduced_to: 52
  - symbol: Mo # 54
    coordinates: [  0.517973525971146,  0.705905049585654,  0.833333333333333 ]
    mass: 95.960000
    reduced_to: 52
  - symbol: Mo # 55
    coordinates: [  0.412613071432786,  0.687306213911951,  0.166666666666667 ]
    mass: 95.960000
    reduced_to: 55
  - symbol: Mo # 56
    coordinates: [  0.412613071432786,  0.687306213911951,  0.500000000000000 ]
    mass: 95.960000
    reduced_to: 55
  - symbol: Mo # 57
    coordinates: [  0.412613071432786,  0.687306213911951,  0.833333333333333 ]
    mass: 95.960000
    reduced_to: 55
  - symbol: Mo # 58
    coordinates: [  0.587386928567214,  0.312693786088049,  0.166666666666667 ]
    mass: 95.960000
    reduced_to: 58
  - symbol: Mo # 59
    coordinates: [  0.587386928567214,  0.312693786088049,  0.500000000000000 ]
    mass: 95.960000
    reduced_to: 58
  - symbol: Mo # 60
    coordinates: [  0.587386928567214,  0.312693786088049,  0.833333333333333 ]
    mass: 95.960000
    reduced_to: 58
  - symbol: Mo # 61
    coordinates: [  0.535930969552678,  0.296458774415331,  0.000000000000000 ]
    mass: 95.960000
    reduced_to: 61
  - symbol: Mo # 62
    coordinates: [  0.535930969552678,  0.296458774415331,  0.333333333333333 ]
    mass: 95.960000
    reduced_to: 61
  - symbol: Mo # 63
    coordinates: [  0.535930969552678,  0.296458774415331,  0.666666666666667 ]
    mass: 95.960000
    reduced_to: 61
  - symbol: Mo # 64
    coordinates: [  0.429346711455039,  0.305762581807837,  0.000000000000000 ]
    mass: 95.960000
    reduced_to: 64
  - symbol: Mo # 65
    coordinates: [  0.429346711455039,  0.305762581807837,  0.333333333333333 ]
    mass: 95.960000
    reduced_to: 64
  - symbol: Mo # 66
    coordinates: [  0.429346711455039,  0.305762581807837,  0.666666666666667 ]
    mass: 95.960000
    reduced_to: 64
  - symbol: Mo # 67
    coordinates: [  0.618518460233176,  0.669332558966953,  0.166666666666667 ]
    mass: 95.960000
    reduced_to: 67
  - symbol: Mo # 68
    coordinates: [  0.618518460233176,  0.669332558966953,  0.500000000000000 ]
    mass: 95.960000
    reduced_to: 67
  - symbol: Mo # 69
    coordinates: [  0.618518460233176,  0.669332558966953,  0.833333333333333 ]
    mass: 95.960000
    reduced_to: 67
  - symbol: Mo # 70
    coordinates: [  0.464069030447322,  0.703541225584670,  0.000000000000000 ]
    mass: 95.960000
    reduced_to: 70
  - symbol: Mo # 71
    coordinates: [  0.464069030447322,  0.703541225584670,  0.333333333333333 ]
    mass: 95.960000
    reduced_to: 70
  - symbol: Mo # 72
    coordinates: [  0.464069030447322,  0.703541225584670,  0.666666666666667 ]
    mass: 95.960000
    reduced_to: 70
  - symbol: S # 73
    coordinates: [  0.480285385464758,  0.735354404252780,  0.166666666666667 ]
    mass: 32.065000