phonopy:
  version: "2.37.0"
  frequency_unit_conversion_factor: 15.633302
  symmetry_tolerance: 1.00000e-05

space_group:
  type: "P4/mmm"
  number: 123
  Hall_symbol: "-P 4 2"

supercell_matrix:
- [   1,   0,   0 ]
- [   0,   1,   0 ]
- [   0,   0,   3 ]

primitive_cell:
  lattice:
  - [    21.999999999999996,     0.000000000000000,     0.000000000000000 ] # a
  - [     0.000000000000000,    21.999999999999996,     0.000000000000000 ] # b
  - [     0.000000000000000,     0.000000000000000,     4.259999999999999 ] # c
  points:
  - symbol: C # 1
    coordinates: [  0.576241636450163,  0.500000000000000,  0.002701787998814 ]
    mass: 12.010700
  - symbol: C # 2
    coordinates: [  0.553910977099631,  0.553910977099631,  0.830631532643546 ]
    mass: 12.010700
  - symbol: C # 3
    coordinates: [  0.553910977099631,  0.553910977099631,  0.502701800689788 ]
    mass: 12.010700
  - symbol: C # 4
    coordinates: [  0.500000000000000,  0.576241636450163,  0.330631545334520 ]
    mass: 12.010700
  - symbol: C # 5
    coordinates: [  0.500000000000000,  0.576241636450163,  0.002701787998814 ]
    mass: 12.010700
  - symbol: C # 6
    coordinates: [  0.446089022900369,  0.553910977099631,  0.830631532643546 ]
    mass: 12.010700
  - symbol: C # 7
    coordinates: [  0.446089022900369,  0.553910977099631,  0.502701800689788 ]
    mass: 12.010700
  - symbol: C # 8
    coordinates: [  0.423758363549837,  0.500000000000000,  0.330631545334520 ]
    mass: 12.010700
  - symbol: C # 9
    coordinates: [  0.423758363549837,  0.500000000000000,  0.002701787998814 ]
    mass: 12.010700
  - symbol: C # 10
    coordinates: [  0.446089022900369,  0.446089022900369,  0.830631532643546 ]
    mass: 12.010700
  - symbol: C # 11
    coordinates: [  0.446089022900369,  0.446089022900369,  0.502701800689788 ]
    mass: 12.010700
  - symbol: C # 12
    coordinates: [  0.500000000000000,  0.423758363549837,  0.330631545334520 ]
    mass: 12.010700
  - symbol: C # 13
    coordinates: [  0.500000000000000,  0.423758363549837,  0.002701787998814 ]
    mass: 12.010700
  - symbol: C # 14
    coordinates: [  0.553910977099631,  0.446089022900369,  0.830631532643546 ]
    mass: 12.010700
  - symbol: C # 15
    coordinates: [  0.553910977099631,  0.446089022900369,  0.502701800689788 ]
    mass: 12.010700
  - symbol: C # 16
    coordinates: [  0.576241636450163,  0.500000000000000,  0.330631545334520 ]
    mass: 12.010700
  reciprocal_lattice: # without 2pi
  - [     0.045454545454545,     0.000000000000000,     0.000000000000000 ] # a*
  - [     0.000000000000000,     0.045454545454545,     0.000000000000000 ] # b*
  - [     0.000000000000000,     0.000000000000000,     0.234741784037559 ] # c*

unit_cell:
  lattice:
  - [    21.999999999999996,     0.000000000000000,     0.000000000000000 ] # a
  - [     0.000000000000000,    21.999999999999996,     0.000000000000000 ] # b
  - [     0.000000000000000,     0.000000000000000,     4.259999999999999 ] # c
  points:
  - symbol: C # 1
    coordinates: [  0.576241636450163,  0.500000000000000,  0.002701787998814 ]
    mass: 12.010700
    reduced_to: 1
  - symbol: C # 2
    coordinates: [  0.553910977099631,  0.553910977099631,  0.830631532643546 ]
    mass: 12.010700
    reduced_to: 2
  - symbol: C # 3
    coordinates: [  0.553910977099631,  0.553910977099631,  0.502701800689788 ]
    mass: 12.010700
    reduced_to: 3
  - symbol: C # 4
    coordinates: [  0.500000000000000,  0.576241636450163,  0.330631545334520 ]
    mass: 12.010700
    reduced_to: 4
  - symbol: C # 5
    coordinates: [  0.500000000000000,  0.576241636450163,  0.002701787998814 ]
    mass: 12.010700
    reduced_to: 5
  - symbol: C # 6
    coordinates: [  0.446089022900369,  0.553910977099631,  0.830631532643546 ]
    mass: 12.010700
    reduced_to: 6
  - symbol: C # 7
    coordinates: [  0.446089022900369,  0.553910977099631,  0.502701800689788 ]
    mass: 12.010700
    reduced_to: 7
  - symbol: C # 8
    coordinates: [  0.423758363549837,  0.500000000000000,  0.330631545334520 ]
    mass: 12.010700
    reduced_to: 8
  - symbol: C # 9
    coordinates: [  0.423758363549837,  0.500000000000000,  0.002701787998814 ]
    mass: 12.010700
    reduced_to: 9
  - symbol: C # 10
    coordinates: [  0.446089022900369,  0.446089022900369,  0.830631532643546 ]
    mass: 12.010700
    reduced_to: 10
  - symbol: C # 11
    coordinates: [  0.446089022900369,  0.446089022900369,  0.502701800689788 ]
    mass: 12.010700
    reduced_to: 11
  - symbol: C # 12
    coordinates: [  0.500000000000000,  0.423758363549837,  0.330631545334520 ]
    mass: 12.010700
    reduced_to: 12
  - symbol: C # 13
    coordinates: [  0.500000000000000,  0.423758363549837,  0.002701787998814 ]
    mass: 12.010700
    reduced_to: 13
  - symbol: C # 14
    coordinates: [  0.553910977099631,  0.446089022900369,  0.830631532643546 ]
    mass: 12.010700
    reduced_to: 14
  - symbol: C # 15
    coordinates: [  0.553910977099631,  0.446089022900369,  0.502701800689788 ]
    mass: 12.010700
    reduced_to: 15
  - symbol: C # 16
    coordinates: [  0.576241636450163,  0.500000000000000,  0.330631545334520 ]
    mass: 12.010700
    reduced_to: 16

supercell:
  lattice:
  - [    21.999999999999996,     0.000000000000000,     0.000000000000000 ] # a
  - [     0.000000000000000,    21.999999999999996,     0.000000000000000 ] # b
  - [     0.000000000000000,     0.000000000000000,    12.779999999999998 ] # c
  points:
  - symbol: C # 1
    coordinates: [  0.576241636450163,  0.500000000000000,  0.000900595999605 ]
    mass: 12.010700
    reduced_to: 1
  - symbol: C # 2
    coordinates: [  0.576241636450163,  0.500000000000000,  0.334233929332938 ]
    mass: 12.010700
    reduced_to: 1
  - symbol: C # 3
    coordinates: [  0.576241636450163,  0.500000000000000,  0.667567262666271 ]
    mass: 12.010700
    reduced_to: 1
  - symbol: C # 4
    coordinates: [  0.553910977099631,  0.553910977099631,  0.276877177547849 ]
    mass: 12.010700
    reduced_to: 4
  - symbol: C # 5
    coordinates: [  0.553910977099631,  0.553910977099631,  0.610210510881182 ]
    mass: 12.010700
    reduced_to: 4
  - symbol: C # 6
    coordinates: [  0.553910977099631,  0.553910977099631,  0.943543844214515 ]
    mass: 12.010700
    reduced_to: 4
  - symbol: C # 7
    coordinates: [  0.553910977099631,  0.553910977099631,  0.167567266896596 ]
    mass: 12.010700
    reduced_to: 7
  - symbol: C # 8
    coordinates: [  0.553910977099631,  0.553910977099631,  0.500900600229929 ]
    mass: 12.010700
    reduced_to: 7
  - symbol: C # 9
    coordinates: [  0.553910977099631,  0.553910977099631,  0.834233933563262 ]
    mass: 12.010700
    reduced_to: 7
  - symbol: C # 10
    coordinates: [  0.500000000000000,  0.576241636450163,  0.110210515111507 ]
    mass: 12.010700
    reduced_to: 10
  - symbol: C # 11
    coordinates: [  0.500000000000000,  0.576241636450163,  0.443543848444840 ]
    mass: 12.010700
    reduced_to: 10
  - symbol: C # 12
    coordinates: [  0.500000000000000,  0.576241636450163,  0.776877181778173 ]
    mass: 12.010700
    reduced_to: 10
  - symbol: C # 13
    coordinates: [  0.500000000000000,  0.576241636450163,  0.000900595999605 ]
    mass: 12.010700
    reduced_to: 13
  - symbol: C # 14
    coordinates: [  0.500000000000000,  0.576241636450163,  0.334233929332938 ]
    mass: 12.010700
    reduced_to: 13
  - symbol: C # 15
    coordinates: [  0.500000000000000,  0.576241636450163,  0.667567262666271 ]
    mass: 12.010700
    reduced_to: 13
  - symbol: C # 16
    coordinates: [  0.446089022900369,  0.553910977099631,  0.276877177547849 ]
    mass: 12.010700
    reduced_to: 16
  - symbol: C # 17
    coordinates: [  0.446089022900369,  0.553910977099631,  0.610210510881182 ]
    mass: 12.010700
    reduced_to: 16
  - symbol: C # 18
    coordinates: [  0.446089022900369,  0.553910977099631,  0.943543844214515 ]
    mass: 12.010700
    reduced_to: 16
  - symbol: C # 19
    coordinates: [  0.446089022900369,  0.553910977099631,  0.167567266896596 ]
    mass: 12.010700
    reduced_to: 19
  - symbol: C # 20
    coordinates: [  0.446089022900369,  0.553910977099631,  0.500900600229929 ]
    mass: 12.010700
    reduced_to: 19
  - symbol: C # 21
    coordinates: [  0.446089022900369,  0.553910977099631,  0.834233933563262 ]
    mass: 12.010700
    reduced_to: 19
  - symbol: C # 22
    coordinates: [  0.423758363549837,  0.500000000000000,  0.110210515111507 ]
    mass: 12.010700
    reduced_to: 22
  - symbol: C # 23
    coordinates: [  0.423758363549837,  0.500000000000000,  0.443543848444840 ]
    mass: 12.010700
    reduced_to: 22
  - symbol: C # 24
    coordinates: [  0.423758363549837,  0.500000000000000,  0.776877181778173 ]
    mass: 12.010700
    reduced_to: 22
  - symbol: C # 25
    coordinates: [  0.423758363549837,  0.500000000000000,  0.000900595999605 ]
    mass: 12.010700
    reduced_to: 25
  - symbol: C # 26
    coordinates: [  0.423758363549837,  0.500000000000000,  0.334233929332938 ]
    mass: 12.010700
    reduced_to: 25
  - symbol: C # 27
    coordinates: [  0.423758363549837,  0.500000000000000,  0.667567262666271 ]
    mass: 12.010700
    reduced_to: 25
  - symbol: C # 28
    coordinates: [  0.446089022900369,  0.446089022900369,  0.276877177547849 ]
    mass: 12.010700
    reduced_to: 28
  - symbol: C # 29
    coordinates: [  0.446089022900369,  0.446089022900369,  0.610210510881182 ]
    mass: 12.010700
    reduced_to: 28
  - symbol: C # 30
    coordinates: [  0.446089022900369,  0.446089022900369,  0.943543844214515 ]
    mass: 12.010700
    reduced_to: 28
  - symbol: C # 31
    coordinates: [  0.446089022900369,  0.446089022900369,  0.167567266896596 ]
    mass: 12.010700
    reduced_to: 31
  - symbol: C # 32
    coordinates: [  0.446089022900369,  0.446089022900369,  0.500900600229929 ]
    mass: 12.010700
    reduced_to: 31
  - symbol: C # 33
    coordinates: [  0.446089022900369,  0.446089022900369,  0.834233933563262 ]
    mass: 12.010700
    reduced_to: 31
  - symbol: C # 34
    coordinates: [  0.500000000000000,  0.423758363549837,  0.110210515111507 ]
    mass: 12.010700
    reduced_to: 34
  - symbol: C # 35
    coordinates: [  0.500000000000000,  0.423758363549837,  0.443543848444840 ]
    mass: 12.010700
    reduced_to: 34
  - symbol: C # 36
    coordinates: [  0.500000000000000,  0.423758363549837,  0.776877181778173 ]
    mass: 12.010700
    reduced_to: 34
  - symbol: C # 37
    coordinates: [  0.500000000000000,  0.423758363549837,  0.000900595999605 ]
    mass: 12.010700
    reduced_to: 37
  - symbol: C # 38
    coordinates: [  0.500000000000000,  0.423758363549837,  0.334233929332938 ]
    mass: 12.010700
    reduced_to: 37
  - symbol: C # 39
    coordinates: [  0.500000000000000,  0.423758363549837,  0.667567262666271 ]
    mass: 12.010700
    reduced_to: 37
  - symbol: C # 40
    coordinates: [  0.553910977099631,  0.446089022900369,  0.276877177547849 ]
    mass: 12.010700
    reduced_to: 40
  - symbol: C # 41
    coordinates: [  0.553910977099631,  0.446089022900369,  0.610210510881182 ]
    mass: 12.010700
    reduced_to: 40
  - symbol: C # 42
    coordinates: [  0.553910977099631,  0.446089022900369,  0.943543844214515 ]
    mass: 12.010700
    reduced_to: 40
  - symbol: C # 43
    coordinates: [  0.553910977099631,  0.446089022900369,  0.167567266896596 ]
    mass: 12.010700
    reduced_to: 43
  - symbol: C # 44
    coordinates: [  0.553910977099631,  0.446089022900369,  0.500900600229929 ]
    mass: 12.010700
    reduced_to: 43
  - symbol: C # 45
    coordinates: [  0.553910977099631,  0.446089022900369,  0.834233933563262 ]
    mass: 12.010700
    reduced_to: 43
  - symbol: C # 46
    coordinates: [  0.576241636450163,  0.500000000000000,  0.110210515111507 ]
    mass: 12.010700
    reduced_to: 46
  - symbol: C # 47
    coordinates: [  0.576241636450163,  0.500000000000000,  0.443543848444840 ]
    mass: 12.010700
    reduced_to: 46
  - symbol: C # 48
    coordinates: [  0.576241636450163,  0.500000000000000,  0.776877181778173 ]
    mass: 12.010700
    reduced_to: 46

displacements:
- atom:    1
  displacement:
    [   0.0070710678118655,  0.0070710678118655,  0.0000000000000000 ]
  forces:
  - [  -0.1190833076834679, -0.2812750935554504, -0.0126849040389061 ]
  - [  -0.0003316047950648, -0.0003422245790716,  0.0027716755867004 ]
  - [  -0.0003216728218831, -0.0003424375900067, -0.0002629278751556 ]
  - [  -0.0013631059555337, -0.0005403687828220, -0.0002946101012640 ]
  - [   0.0000958551099757,  0.0001099446599255, -0.0010744434548542 ]
  - [  -0.0086184144020081,  0.0688099190592766, -0.0022251859772950 ]
  - [  -0.0032556091900915,  0.0019047835376114,  0.0146983610466123 ]
  - [  -0.0000729114763089,  0.0000066983093348, -0.0000084883740783 ]
  - [  -0.0032176522072405, -0.0012319498928264, -0.0142372753471136 ]
  - [   0.0005072320927866, -0.0036038442049176, -0.0016577930655330 ]
  - [   0.0000005342827762, -0.0000296419420920, -0.0002669507230166 ]
  - [   0.0018671178258955, -0.0043037789873779,  0.0061585563234985 ]
  - [  -0.0011119464179501, -0.0041117607615888, -0.0043262029066682 ]
  - [  -0.0004507692647167,  0.0002960344718304,  0.0011655827984214 ]
  - [  -0.0003763756831177,  0.0002253557613585, -0.0009664620738477 ]
  - [  -0.0005865254788660, -0.0002615035336930, -0.0002386753767496 ]
  - [   0.0001562168909004,  0.0001254200615222,  0.0001383547350997 ]
  - [  -0.0003826505271718,  0.0003125877701677,  0.0030771801248193 ]
  - [  -0.0023875236511230,  0.0001435131998733, -0.0021585687063634 ]
  - [  -0.0000021557775653, -0.0000008084166438,  0.0000667521162541 ]
  - [   0.0010256497189403,  0.0001286537299166,  0.0029831728897989 ]
  - [  -0.0006868461496197, -0.0001723952882458, -0.0010628945892677 ]
  - [  -0.0000501988215547,  0.0000595036035520,  0.0000600153107371 ]
  - [   0.0035752032417804, -0.0008763661608100,  0.0050748353824019 ]
  - [   0.0038884070236236,  0.0016965792747214, -0.0047098738141358 ]
  - [  -0.0002923388383351,  0.0006761466502212,  0.0007431851117872 ]
  - [  -0.0002894131466746,  0.0006801362033002, -0.0009696764755063 ]
  - [   0.0029184224549681, -0.0005724359652959, -0.0044149556197226 ]
  - [  -0.0005915299989283,  0.0001597585214768, -0.0009369355975650 ]
  - [  -0.0030086571350694, -0.0003646343830042, -0.0025456077419221 ]
  - [  -0.0042728283442557,  0.0010266506578773,  0.0014527824241668 ]
  - [  -0.0000060438765104, -0.0000001539841179,  0.0000928331719479 ]
  - [  -0.0042616645805538, -0.0023509524762630,  0.0021675189491361 ]
  - [   0.0108548551797867,  0.0149545529857278,  0.0000207301127375 ]
  - [  -0.0002391119196545, -0.0002061847335426,  0.0008027192088775 ]
  - [  -0.0052848262712359,  0.0008789413259365,  0.0009460399160162 ]
  - [   0.0286078359931707,  0.0314477160573006, -0.0070468522608280 ]
  - [   0.0006265747360885,  0.0000096240073617,  0.0013580821687356 ]
  - [   0.0006986507796682, -0.0000652892631479, -0.0000842870576889 ]
  - [  -0.0005203123437241,  0.0039179720915854, -0.0048497873358428 ]
  - [   0.0001126008864958, -0.0001310019870289,  0.0008466431754641 ]
  - [   0.0676802173256874,  0.1192221641540527,  0.0351653732359409 ]
  - [  -0.0011268173111603, -0.0068455948494375, -0.0127659570425749 ]
  - [   0.0000064673331508, -0.0000200179347303,  0.0001246501487913 ]
  - [   0.0020549565088004, -0.0069183525629342,  0.0164601318538189 ]
  - [   0.0330020301043987,  0.0590773634612560, -0.0158442147076130 ]
  - [   0.0001596815272933,  0.0002422325487714,  0.0004592191253323 ]
  - [   0.0043545169755816,  0.0084551516920328, -0.0012008066987619 ]
- atom:    1
  displacement:
    [  -0.0070710678118655, -0.0070710678118655,  0.0000000000000000 ]
  forces:
  - [   0.1228774040937424,  0.2889468371868134,  0.0190861001610756 ]
  - [   0.0003440005239099,  0.0003432724042796, -0.0026222725864500 ]
  - [   0.0003553183632903,  0.0003418271080591,  0.0004120807570871 ]
  - [   0.0013609501766041,  0.0005464896094054,  0.0002248745586257 ]
  - [  -0.0000935838470468, -0.0001228793262271,  0.0009514871053398 ]
  - [   0.0077126407995820, -0.0685972273349762,  0.0015677122864872 ]
  - [   0.0031632957980037, -0.0022481682244688, -0.0148576777428389 ]
  - [   0.0000664056497044, -0.0000132041377583,  0.0001052866427926 ]
  - [   0.0032016378827393,  0.0011943777790293,  0.0145661272108555 ]
  - [  -0.0006089537055232,  0.0035656562540680,  0.0015561250038445 ]
  - [  -0.0000045626816245,  0.0000534324899490,  0.0001646860182518 ]
  - [  -0.0018891926156357,  0.0042799883522093, -0.0062875756993890 ]
  - [   0.0012010735226795,  0.0040018931031227,  0.0043577314354479 ]
  - [   0.0004545707488433, -0.0002769404381979, -0.0010748861823231 ]
  - [   0.0003845609026030, -0.0002064157160930,  0.0011859664227813 ]
  - [   0.0005961880087852,  0.0002409081498627,  0.0001473820448155 ]
  - [  -0.0001565248530824, -0.0001331962557742, -0.0002785187680274 ]
  - [   0.0004933651071042, -0.0003185546374880, -0.0032833649311215 ]
  - [   0.0023703929036856, -0.0001541765959701,  0.0022691483609378 ]
  - [   0.0000098549835457, -0.0000073527417044,  0.0000355125885108 ]
  - [  -0.0010026675881818, -0.0001734246179694, -0.0027310044970363 ]
  - [   0.0005567295593210,  0.0001600675605005,  0.0010264003649354 ]
  - [   0.0000281790944427, -0.0000581903659622, -0.0001774089469109 ]
  - [  -0.0036113124806434,  0.0009177917381749, -0.0052656792104244 ]
  - [  -0.0038385160733014, -0.0017400073120371,  0.0048065949231386 ]
  - [   0.0002757085603662, -0.0006893719546497, -0.0006639987695962 ]
  - [   0.0002787112607621, -0.0006854189559817,  0.0011650245869532 ]
  - [  -0.0029294323176146,  0.0006130877882242,  0.0043761129491031 ]
  - [   0.0005982283037156, -0.0001552159956191,  0.0007938266498968 ]
  - [   0.0029191540088505,  0.0005153463571332,  0.0023437151685357 ]
  - [   0.0042613181285560, -0.0009997418383136, -0.0013591985916719 ]
  - [   0.0000137045863084,  0.0000080456702563,  0.0000048697479542 ]
  - [   0.0042744451202452,  0.0024095433764160, -0.0020146705210209 ]
  - [  -0.0110306693241000, -0.0152115523815155,  0.0000520273824804 ]
  - [   0.0002375937328907,  0.0001841650082497, -0.0009205940295942 ]
  - [   0.0052969874814153, -0.0008731669513509, -0.0011590769281611 ]
  - [  -0.0292215850204229, -0.0321913808584213,  0.0073467749170959 ]
  - [  -0.0006120607140474, -0.0000294879591820, -0.0012524491176009 ]
  - [  -0.0006845516036265,  0.0000328756104864,  0.0003020206058864 ]
  - [   0.0005627349601127, -0.0039471518248320,  0.0048154680989683 ]
  - [  -0.0001161810141639,  0.0001379312743666, -0.0010181622346863 ]
  - [  -0.0697394087910652, -0.1259758770465851, -0.0400340817868710 ]
  - [   0.0013059778138995,  0.0070524727925658,  0.0129398051649332 ]
  - [  -0.0000125112092064,  0.0000271012049780, -0.0000253496345977 ]
  - [  -0.0020952618215233,  0.0069862594828010, -0.0166037026792765 ]
  - [  -0.0330559238791466, -0.0589488632977009,  0.0145490737631917 ]
  - [  -0.0001341971656075, -0.0002449083840474, -0.0005677586887032 ]
  - [  -0.0043639098294079, -0.0085581811144948,  0.0010478618787602 ]
- atom:    1
  displacement:
    [   0.0000000000000000,  0.0000000000000000,  0.0100000000000000 ]
  forces:
  - [  -0.0214974153786898, -0.0000009289397553, -0.5621881484985352 ]
  - [  -0.0004660329432227, -0.0000004314663329, -0.0063398727215827 ]
  - [   0.0038279681466520, -0.0000005825529570, -0.0062239035032690 ]
  - [   0.0003110864199698,  0.0048895347863436,  0.0060430490411818 ]
  - [   0.0010014356812462, -0.0009459629072808,  0.0029225223697722 ]
  - [   0.0014646198833361, -0.0364476554095745,  0.0794710293412209 ]
  - [  -0.0145822959020734,  0.0167275257408619,  0.0263637751340866 ]
  - [  -0.0000634029638604,  0.0000610546994722, -0.0007684769807383 ]
  - [   0.0147685399278998, -0.0127144297584891,  0.0258755497634411 ]
  - [   0.0011332599679008,  0.0011171547230333,  0.0130212623625994 ]
  - [   0.0007635986548848, -0.0004447831306607, -0.0021151066757739 ]
  - [  -0.0036407441366464, -0.0051059592515230,  0.0081254914402962 ]
  - [   0.0021296811755747, -0.0083074430003762, -0.0217782817780972 ]
  - [  -0.0006185830570757, -0.0008971884381026,  0.0009697919595055 ]
  - [  -0.0001295583933825,  0.0017251610988751,  0.0010042843641713 ]
  - [  -0.0044434810988605,  0.0001834720751503,  0.0063160243444145 ]
  - [  -0.0008458347874694, -0.0002154622779926, -0.0014503186102957 ]
  - [  -0.0024319482035935, -0.0032124936114997, -0.0020952234044671 ]
  - [  -0.0021068877540529,  0.0028360795695335,  0.0000962785707088 ]
  - [  -0.0000369176923414,  0.0000097779911812, -0.0000848452473292 ]
  - [  -0.0013969439314678, -0.0022379667498171,  0.0001528484863229 ]
  - [  -0.0014932609628886,  0.0000004601877492, -0.0015741796232760 ]
  - [   0.0001505194813944, -0.0000005327643748, -0.0004276139079593 ]
  - [   0.0072717461735010,  0.0000000636495230,  0.0084449704736471 ]
  - [   0.0067555140703917,  0.0000001477495175, -0.0083649754524231 ]
  - [   0.0015322959516197, -0.0000006727929645, -0.0014987466856837 ]
  - [  -0.0009789540199563, -0.0000004778693210, -0.0014137089019641 ]
  - [  -0.0044437893666327, -0.0001845114747994,  0.0063171791844070 ]
  - [  -0.0008458732627332,  0.0002160782169085, -0.0014517045347020 ]
  - [  -0.0024323330726475,  0.0032113771885633, -0.0020931831095368 ]
  - [  -0.0021053478121758, -0.0028365028556436,  0.0001028998885886 ]
  - [  -0.0000385345265386, -0.0000110098644654, -0.0000928139270400 ]
  - [  -0.0013985607074574,  0.0022411618847400,  0.0001492106093792 ]
  - [   0.0011344563681632, -0.0011153069790453,  0.0130171822384000 ]
  - [   0.0007629354950041,  0.0004449371190276, -0.0021120847668499 ]
  - [  -0.0036403192207217,  0.0051074223592877,  0.0081256069242954 ]
  - [   0.0021291023585945,  0.0083069810643792, -0.0217778384685516 ]
  - [  -0.0006186382379383,  0.0008975734235719,  0.0009686755947769 ]
  - [  -0.0001295116817346, -0.0017239291919395,  0.0010084226960316 ]
  - [   0.0003103549825028, -0.0048897657543421,  0.0060433954931796 ]
  - [   0.0010012047132477,  0.0009457704727538,  0.0029221950098872 ]
  - [   0.0014648893848062,  0.0364493504166603,  0.0794725865125656 ]
  - [  -0.0145826805382967, -0.0167252924293280,  0.0263661239296198 ]
  - [  -0.0000639419085928, -0.0000615936442045, -0.0007685154560022 ]
  - [   0.0147712733596563,  0.0127127747982740,  0.0258780326694250 ]
  - [   0.0215941164642572,  0.0000007319640645,  0.2716901600360870 ]
  - [  -0.0007151792524382, -0.0000004976816967, -0.0024757951032370 ]
  - [   0.0014686235226691, -0.0000002794435829,  0.0262249000370502 ]
- atom:    1
  displacement:
    [   0.0000000000000000,  0.0000000000000000, -0.0100000000000000 ]
  forces:
  - [   0.0232942551374435, -0.0000004041401382,  0.5420354008674622 ]
  - [   0.0005039130337536,  0.0000007996091540,  0.0063536735251546 ]
  - [  -0.0038040236104280, -0.0000004526209523,  0.0064699123613536 ]
  - [  -0.0002075320953736, -0.0047765104100108, -0.0061465841718018 ]
  - [  -0.0010194518836215,  0.0009158205357380, -0.0031387160997838 ]
  - [  -0.0023300875909626,  0.0386667586863041, -0.0803885832428932 ]
  - [   0.0142171615734696, -0.0163459908217192, -0.0256337169557810 ]
  - [   0.0000597843354626, -0.0000810341443866,  0.0008800577488728 ]
  - [  -0.0147840920835733,  0.0129981078207493, -0.0261380728334188 ]
  - [  -0.0011084630386904, -0.0011753607541323, -0.0130564095452428 ]
  - [  -0.0007595308707096,  0.0004615673969965,  0.0019744229502976 ]
  - [   0.0036656120792031,  0.0051904194988310, -0.0082998014986515 ]
  - [  -0.0019062996143475,  0.0080087911337614,  0.0217428077012300 ]
  - [   0.0006327207665890,  0.0009013460366987, -0.0008337855106220 ]
  - [   0.0001279511780012, -0.0017140741692856, -0.0008036046056077 ]
  - [   0.0043576350435615, -0.0002069546608254, -0.0063080750405788 ]
  - [   0.0008743988000788,  0.0002036439982476,  0.0013447625096887 ]
  - [   0.0024585104547441,  0.0031489753164351,  0.0019151004962623 ]
  - [   0.0020770148839802, -0.0028808503411710, -0.0000061786126935 ]
  - [   0.0000491209320899, -0.0000171692299773,  0.0001849734253483 ]
  - [   0.0014151909854263,  0.0021933112293482,  0.0000529320423084 ]
  - [   0.0014505303697661,  0.0000002053413652,  0.0014725308865309 ]
  - [  -0.0001766197819961,  0.0000000308050545,  0.0003032332169823 ]
  - [  -0.0073573612608016, -0.0000000677737191, -0.0086305597797036 ]
  - [  -0.0067153242416680, -0.0000002432335293,  0.0084355194121599 ]
  - [  -0.0014898732770234,  0.0000005247410968,  0.0015455962857231 ]
  - [   0.0010178349912167,  0.0000001635182230,  0.0016366586787626 ]
  - [   0.0043567880056798,  0.0002058382669929, -0.0063079399988055 ]
  - [   0.0008738983888179, -0.0002052223280771,  0.0013417598092929 ]
  - [   0.0024584333878011, -0.0031486286316067,  0.0019116550683975 ]
  - [   0.0020770148839802,  0.0028800035361201, -0.0000037533627619 ]
  - [   0.0000477735738968,  0.0000167072776094,  0.0001824134378694 ]
  - [   0.0014155375538394, -0.0021889996714890,  0.0000536634652235 ]
  - [  -0.0011069828178734,  0.0011726660886779, -0.0130621651187539 ]
  - [  -0.0007595666684210, -0.0004624143184628,  0.0019731910433620 ]
  - [   0.0036656160373241, -0.0051925755105913, -0.0082959327846766 ]
  - [  -0.0019053904106840, -0.0080067124217749,  0.0217446740716696 ]
  - [   0.0006307126022875, -0.0009000371792354, -0.0008349018753506 ]
  - [   0.0001277174887946,  0.0017141512362286, -0.0008041242836043 ]
  - [  -0.0002056457888102,  0.0047760866582394, -0.0061443899758160 ]
  - [  -0.0010202988050878, -0.0009180917986669, -0.0031397554557770 ]
  - [  -0.0023302417248487, -0.0386647172272205, -0.0803944915533066 ]
  - [   0.0142180463299155,  0.0163465682417154, -0.0256321970373392 ]
  - [   0.0000584369736316,  0.0000838058549562,  0.0008840998052619 ]
  - [  -0.0147836301475763, -0.0129974912852049, -0.0261371880769730 ]
  - [  -0.0213947072625160, -0.0000007315388757, -0.2505709230899811 ]
  - [   0.0007317325216718, -0.0000009054497809,  0.0023305111099035 ]
  - [  -0.0016979828942567, -0.0000008224255907, -0.0260568838566542 ]
- atom:    4
  displacement:
    [   0.0100000000000000,  0.0000000000000000,  0.0000000000000000 ]
  forces:
  - [  -0.0013286519097164, -0.0005818811478093,  0.0003140698536299 ]
  - [   0.0425676777958870, -0.0547403581440449,  0.0021738514769822 ]
  - [   0.0001497495541116, -0.0000101368514152,  0.0011041045654565 ]
  - [  -0.2830812931060791,  0.1146555319428444,  0.0126814777031541 ]
  - [  -0.0004769657971337,  0.0000066598131525,  0.0002930317714345 ]
  - [  -0.0004861663619522, -0.0000055434284150, -0.0028263784479350 ]
  - [   0.0650930926203728, -0.0184459108859301,  0.0158525109291077 ]
  - [   0.0090453736484051, -0.0029111083131284,  0.0011688164668158 ]
  - [   0.0002712430141401, -0.0000687539068167, -0.0004250154015608 ]
  - [  -0.0056351246312261,  0.0040560956113040,  0.0127701144665480 ]
  - [  -0.0034398722928017,  0.0063576963730156, -0.0164227522909641 ]
  - [  -0.0000086378477135,  0.0000364172447007, -0.0001502692466602 ]
  - [   0.0023998352698982, -0.0031193331815302,  0.0048710564151406 ]
  - [   0.1321424394845963, -0.0364256352186203, -0.0352130495011806 ]
  - [  -0.0000146477395901,  0.0001799304445740, -0.0008244309574366 ]
  - [   0.0424760580062866, -0.0020209259819239,  0.0070696417242289 ]
  - [   0.0004581797402352,  0.0005312451976351,  0.0001075579057215 ]
  - [   0.0004699210403487,  0.0004207231104374, -0.0014142093714327 ]
  - [   0.0182568188756704, -0.0029101457912475, -0.0000177466699824 ]
  - [  -0.0031011630780995, -0.0043702232651412, -0.0009789732284844 ]
  - [  -0.0003018088755198, -0.0000361092752428, -0.0007712487131357 ]
  - [  -0.0023080678656697, -0.0037477256264538, -0.0014501647092402 ]
  - [  -0.0046929740346968, -0.0013515369500965, -0.0021349706221372 ]
  - [  -0.0000216347689275, -0.0000035650261907, -0.0001231295464095 ]
  - [   0.0016477070748806,  0.0024679854977876,  0.0044455598108470 ]
  - [  -0.0023947609588504, -0.0018690812867135,  0.0024923291057348 ]
  - [  -0.0003128957177978, -0.0005307035753503,  0.0009547785157338 ]
  - [   0.0039565451443195,  0.0015620918711647,  0.0047325864434242 ]
  - [   0.0002810980076902, -0.0006760672549717,  0.0009981635957956 ]
  - [   0.0002823298855219, -0.0006708318251185, -0.0007981382077560 ]
  - [  -0.0005982283037156, -0.0003510837850627,  0.0010672832140699 ]
  - [   0.0019187961006537,  0.0031596771441400, -0.0051058633252978 ]
  - [   0.0000184780947166, -0.0000656742267893, -0.0000283715744445 ]
  - [  -0.0015846242895350, -0.0018003053264692,  0.0021641696803272 ]
  - [   0.0008161669247784,  0.0006175533053465, -0.0029533191118389 ]
  - [  -0.0000026850980248, -0.0000163993081514, -0.0000931988906814 ]
  - [  -0.0005971848731861, -0.0002447577426210,  0.0002633513358887 ]
  - [  -0.0000508246848767, -0.0005042979610153, -0.0031240875832736 ]
  - [   0.0001992652250919,  0.0000129346663016, -0.0001099061628338 ]
  - [  -0.0037037415895611,  0.0021362602710724,  0.0043435646221042 ]
  - [  -0.0001134862977779, -0.0004176819056738,  0.0009989334503189 ]
  - [  -0.0001193761854665, -0.0005158853018656, -0.0012265412369743 ]
  - [  -0.0021976998541504,  0.0029116086661816,  0.0016610459424555 ]
  - [  -0.0017346695531160,  0.0043736109510064, -0.0061923367902637 ]
  - [  -0.0000322211781167,  0.0000332605704898,  0.0002955725067295 ]
  - [  -0.0009453084785491, -0.0036459760740399, -0.0146894305944443 ]
  - [  -0.0031338077969849, -0.0014030735474080,  0.0142670711502433 ]
  - [  -0.0000322596715705, -0.0000574260193389, -0.0000177466699824 ]
- atom:    4
  displacement:
    [  -0.0100000000000000,  0.0000000000000000,  0.0000000000000000 ]
  forces:
  - [   0.0013670709449798,  0.0005779416533187, -0.0002041444386123 ]
  - [  -0.0430369451642036,  0.0539528094232082, -0.0016118865460157 ]
  - [  -0.0001432822173228,  0.0000190259943338, -0.0009269844158553 ]